# vtk DataFile Version 1.0
Cube
ASCII

DATASET POLYDATA
POINTS 576 float
-1.172715 9.072722 3.819328
4.256210 5.938330 2.657022
4.238542 5.948531 5.107011
4.869143 5.584453 3.881379
4.769896 5.641754 6.322349
0.000073 7.041393 3.819328
7.270777 0.716947 2.657022
7.270923 0.696294 5.107011
7.270850 1.424575 3.881379
7.270850 1.309974 6.322349
1.172861 9.072722 3.819328
10.285344 5.938330 2.657022
10.303303 5.948531 5.107011
9.672557 5.584453 3.881379
9.771804 5.641754 6.322349
-1.183622 7.712374 3.815015
-3.037398 6.641928 2.633691
-2.400398 7.009784 3.836189
-3.009332 6.658300 5.060644
1.183476 7.712374 3.815015
3.037543 6.641928 2.633691
2.400398 7.009784 3.836189
3.009187 6.658300 5.060644
-0.000073 9.762341 3.815015
0.000073 11.902981 2.633691
0.000000 11.167396 3.836189
-0.000073 11.870490 5.060644
6.098135 3.520760 3.844325
8.443565 3.520760 3.844325
7.270850 5.551962 3.844325
7.270850 2.831015 3.835306
8.454544 4.881233 3.835306
6.087156 4.881233 3.835306
4.764006 5.645154 1.679301
5.727249 5.083485 6.384499
4.245740 5.949916 7.251057
7.270850 1.303173 1.679301
9.777694 5.645154 1.679301
8.814451 5.083485 6.384499
10.295960 5.949916 7.251057
-2.565738 6.914325 1.632248
-2.513606 6.944424 6.046599
2.565738 6.914325 1.632248
2.513606 6.944424 6.046599
0.000000 11.358313 1.632248
0.000000 11.298116 6.046599
7.261252 2.419963 6.322349
7.262198 0.759261 7.253410
-1.172715 9.072722 13.622028
4.256210 5.938330 12.459722
4.238542 5.948531 14.909711
4.869143 5.584453 13.684079
4.769896 5.641754 16.125049
0.000073 7.041393 13.622028
7.270777 0.716947 12.459722
7.270923 0.696294 14.909711
7.270850 1.424575 13.684079
7.270850 1.309974 16.125049
1.172861 9.072722 13.622028
10.285344 5.938330 12.459722
10.303303 5.948531 14.909711
9.672557 5.584453 13.684079
9.771804 5.641754 16.125049
-1.183622 7.712374 13.617715
-3.037398 6.641928 12.436391
-2.400398 7.009784 13.638889
-3.009332 6.658300 14.863344
1.183476 7.712374 13.617715
3.037543 6.641928 12.436391
2.400398 7.009784 13.638889
3.009187 6.658300 14.863344
-0.000073 9.762341 13.617715
0.000073 11.902981 12.436391
0.000000 11.167396 13.638889
-0.000073 11.870490 14.863344
6.098135 3.520760 13.647025
8.443565 3.520760 13.647025
7.270850 5.551962 13.647025
7.270850 2.831015 13.638006
8.454544 4.881233 13.638006
6.087156 4.881233 13.638006
4.764006 5.645154 11.482001
5.727249 5.083485 16.187199
4.245740 5.949916 17.053757
7.270850 1.303173 11.482001
9.777694 5.645154 11.482001
8.814451 5.083485 16.187199
10.295960 5.949916 17.053757
-2.565738 6.914325 11.434948
-2.513606 6.944424 15.849299
2.565738 6.914325 11.434948
2.513606 6.944424 15.849299
0.000000 11.358313 11.434948
0.000000 11.298116 15.849299
7.261252 2.419963 16.125049
7.262198 0.759261 17.056110
-1.172715 9.072722 23.424728
4.256210 5.938330 22.262422
4.238542 5.948531 24.712411
4.869143 5.584453 23.486779
4.769896 5.641754 25.927749
0.000073 7.041393 23.424728
7.270777 0.716947 22.262422
7.270923 0.696294 24.712411
7.270850 1.424575 23.486779
7.270850 1.309974 25.927749
1.172861 9.072722 23.424728
10.285344 5.938330 22.262422
10.303303 5.948531 24.712411
9.672557 5.584453 23.486779
9.771804 5.641754 25.927749
-1.183622 7.712374 23.420415
-3.037398 6.641928 22.239091
-2.400398 7.009784 23.441589
-3.009332 6.658300 24.666044
1.183476 7.712374 23.420415
3.037543 6.641928 22.239091
2.400398 7.009784 23.441589
3.009187 6.658300 24.666044
-0.000073 9.762341 23.420415
0.000073 11.902981 22.239091
0.000000 11.167396 23.441589
-0.000073 11.870490 24.666044
6.098135 3.520760 23.449725
8.443565 3.520760 23.449725
7.270850 5.551962 23.449725
7.270850 2.831015 23.440706
8.454544 4.881233 23.440706
6.087156 4.881233 23.440706
4.764006 5.645154 21.284701
5.727249 5.083485 25.989899
4.245740 5.949916 26.856457
7.270850 1.303173 21.284701
9.777694 5.645154 21.284701
8.814451 5.083485 25.989899
10.295960 5.949916 26.856457
-2.565738 6.914325 21.237648
-2.513606 6.944424 25.651999
2.565738 6.914325 21.237648
2.513606 6.944424 25.651999
0.000000 11.358313 21.237648
0.000000 11.298116 25.651999
7.261252 2.419963 25.927749
7.262198 0.759261 26.858810
-8.443565 21.666204 3.819328
-3.014640 18.531812 2.657022
-3.032308 18.542013 5.107011
-2.401707 18.177935 3.881379
-2.500954 18.235235 6.322349
-7.270777 19.634875 3.819328
-0.000073 13.310429 2.657022
0.000073 13.289775 5.107011
0.000000 14.018056 3.881379
0.000000 13.903456 6.322349
-6.097989 21.666204 3.819328
3.014494 18.531812 2.657022
3.032453 18.542013 5.107011
2.401707 18.177935 3.881379
2.500954 18.235235 6.322349
-8.454472 20.305856 3.815015
-10.308248 19.235410 2.633691
-9.671248 19.603265 3.836189
-10.280182 19.251781 5.060644
-6.087374 20.305856 3.815015
-4.233307 19.235410 2.633691
-4.870452 19.603265 3.836189
-4.261663 19.251781 5.060644
-7.270923 22.355823 3.815015
-7.270777 24.496463 2.633691
-7.270850 23.760877 3.836189
-7.270923 24.463971 5.060644
-1.172715 16.114241 3.844325
1.172715 16.114241 3.844325
0.000000 18.145444 3.844325
0.000000 15.424496 3.835306
1.183694 17.474715 3.835306
-1.183694 17.474715 3.835306
-2.506844 18.238636 1.679301
-1.543601 17.676966 6.384499
-3.025110 18.543398 7.251057
0.000000 13.896655 1.679301
2.506844 18.238636 1.679301
1.543601 17.676966 6.384499
3.025110 18.543398 7.251057
-9.836588 19.507807 1.632248
-9.784456 19.537905 6.046599
-4.705112 19.507807 1.632248
-4.757244 19.537905 6.046599
-7.270850 23.951795 1.632248
-7.270850 23.891598 6.046599
-0.009598 15.013445 6.322349
-0.008652 13.352743 7.253410
-8.443565 21.666204 13.622028
-3.014640 18.531812 12.459722
-3.032308 18.542013 14.909711
-2.401707 18.177935 13.684079
-2.500954 18.235235 16.125049
-7.270777 19.634875 13.622028
-0.000073 13.310429 12.459722
0.000073 13.289775 14.909711
0.000000 14.018056 13.684079
0.000000 13.903456 16.125049
-6.097989 21.666204 13.622028
3.014494 18.531812 12.459722
3.032453 18.542013 14.909711
2.401707 18.177935 13.684079
2.500954 18.235235 16.125049
-8.454472 20.305856 13.617715
-10.308248 19.235410 12.436391
-9.671248 19.603265 13.638889
-10.280182 19.251781 14.863344
-6.087374 20.305856 13.617715
-4.233307 19.235410 12.436391
-4.870452 19.603265 13.638889
-4.261663 19.251781 14.863344
-7.270923 22.355823 13.617715
-7.270777 24.496463 12.436391
-7.270850 23.760877 13.638889
-7.270923 24.463971 14.863344
-1.172715 16.114241 13.647025
1.172715 16.114241 13.647025
0.000000 18.145444 13.647025
0.000000 15.424496 13.638006
1.183694 17.474715 13.638006
-1.183694 17.474715 13.638006
-2.506844 18.238636 11.482001
-1.543601 17.676966 16.187199
-3.025110 18.543398 17.053757
0.000000 13.896655 11.482001
2.506844 18.238636 11.482001
1.543601 17.676966 16.187199
3.025110 18.543398 17.053757
-9.836588 19.507807 11.434948
-9.784456 19.537905 15.849299
-4.705112 19.507807 11.434948
-4.757244 19.537905 15.849299
-7.270850 23.951795 11.434948
-7.270850 23.891598 15.849299
-0.009598 15.013445 16.125049
-0.008652 13.352743 17.056110
-8.443565 21.666204 23.424728
-3.014640 18.531812 22.262422
-3.032308 18.542013 24.712411
-2.401707 18.177935 23.486779
-2.500954 18.235235 25.927749
-7.270777 19.634875 23.424728
-0.000073 13.310429 22.262422
0.000073 13.289775 24.712411
0.000000 14.018056 23.486779
0.000000 13.903456 25.927749
-6.097989 21.666204 23.424728
3.014494 18.531812 22.262422
3.032453 18.542013 24.712411
2.401707 18.177935 23.486779
2.500954 18.235235 25.927749
-8.454472 20.305856 23.420415
-10.308248 19.235410 22.239091
-9.671248 19.603265 23.441589
-10.280182 19.251781 24.666044
-6.087374 20.305856 23.420415
-4.233307 19.235410 22.239091
-4.870452 19.603265 23.441589
-4.261663 19.251781 24.666044
-7.270923 22.355823 23.420415
-7.270777 24.496463 22.239091
-7.270850 23.760877 23.441589
-7.270923 24.463971 24.666044
-1.172715 16.114241 23.449725
1.172715 16.114241 23.449725
0.000000 18.145444 23.449725
0.000000 15.424496 23.440706
1.183694 17.474715 23.440706
-1.183694 17.474715 23.440706
-2.506844 18.238636 21.284701
-1.543601 17.676966 25.989899
-3.025110 18.543398 26.856457
0.000000 13.896655 21.284701
2.506844 18.238636 21.284701
1.543601 17.676966 25.989899
3.025110 18.543398 26.856457
-9.836588 19.507807 21.237648
-9.784456 19.537905 25.651999
-4.705112 19.507807 21.237648
-4.757244 19.537905 25.651999
-7.270850 23.951795 21.237648
-7.270850 23.891598 25.651999
-0.009598 15.013445 25.927749
-0.008652 13.352743 26.858810
13.368985 9.072722 3.819328
18.797910 5.938330 2.657022
18.780242 5.948531 5.107011
19.410843 5.584453 3.881379
19.311596 5.641754 6.322349
14.541773 7.041393 3.819328
21.812477 0.716947 2.657022
21.812623 0.696294 5.107011
21.812550 1.424575 3.881379
21.812550 1.309974 6.322349
15.714561 9.072722 3.819328
24.827044 5.938330 2.657022
24.845003 5.948531 5.107011
24.214257 5.584453 3.881379
24.313504 5.641754 6.322349
13.358078 7.712374 3.815015
11.504302 6.641928 2.633691
12.141302 7.009784 3.836189
11.532368 6.658300 5.060644
15.725176 7.712374 3.815015
17.579243 6.641928 2.633691
16.942098 7.009784 3.836189
17.550887 6.658300 5.060644
14.541627 9.762341 3.815015
14.541773 11.902981 2.633691
14.541700 11.167396 3.836189
14.541627 11.870490 5.060644
20.639835 3.520760 3.844325
22.985265 3.520760 3.844325
21.812550 5.551962 3.844325
21.812550 2.831015 3.835306
22.996244 4.881233 3.835306
20.628856 4.881233 3.835306
19.305706 5.645154 1.679301
20.268949 5.083485 6.384499
18.787440 5.949916 7.251057
21.812550 1.303173 1.679301
24.319394 5.645154 1.679301
23.356151 5.083485 6.384499
24.837660 5.949916 7.251057
11.975962 6.914325 1.632248
12.028094 6.944424 6.046599
17.107438 6.914325 1.632248
17.055306 6.944424 6.046599
14.541700 11.358313 1.632248
14.541700 11.298116 6.046599
21.802952 2.419963 6.322349
21.803898 0.759261 7.253410
13.368985 9.072722 13.622028
18.797910 5.938330 12.459722
18.780242 5.948531 14.909711
19.410843 5.584453 13.684079
19.311596 5.641754 16.125049
14.541773 7.041393 13.622028
21.812477 0.716947 12.459722
21.812623 0.696294 14.909711
21.812550 1.424575 13.684079
21.812550 1.309974 16.125049
15.714561 9.072722 13.622028
24.827044 5.938330 12.459722
24.845003 5.948531 14.909711
24.214257 5.584453 13.684079
24.313504 5.641754 16.125049
13.358078 7.712374 13.617715
11.504302 6.641928 12.436391
12.141302 7.009784 13.638889
11.532368 6.658300 14.863344
15.725176 7.712374 13.617715
17.579243 6.641928 12.436391
16.942098 7.009784 13.638889
17.550887 6.658300 14.863344
14.541627 9.762341 13.617715
14.541773 11.902981 12.436391
14.541700 11.167396 13.638889
14.541627 11.870490 14.863344
20.639835 3.520760 13.647025
22.985265 3.520760 13.647025
21.812550 5.551962 13.647025
21.812550 2.831015 13.638006
22.996244 4.881233 13.638006
20.628856 4.881233 13.638006
19.305706 5.645154 11.482001
20.268949 5.083485 16.187199
18.787440 5.949916 17.053757
21.812550 1.303173 11.482001
24.319394 5.645154 11.482001
23.356151 5.083485 16.187199
24.837660 5.949916 17.053757
11.975962 6.914325 11.434948
12.028094 6.944424 15.849299
17.107438 6.914325 11.434948
17.055306 6.944424 15.849299
14.541700 11.358313 11.434948
14.541700 11.298116 15.849299
21.802952 2.419963 16.125049
21.803898 0.759261 17.056110
13.368985 9.072722 23.424728
18.797910 5.938330 22.262422
18.780242 5.948531 24.712411
19.410843 5.584453 23.486779
19.311596 5.641754 25.927749
14.541773 7.041393 23.424728
21.812477 0.716947 22.262422
21.812623 0.696294 24.712411
21.812550 1.424575 23.486779
21.812550 1.309974 25.927749
15.714561 9.072722 23.424728
24.827044 5.938330 22.262422
24.845003 5.948531 24.712411
24.214257 5.584453 23.486779
24.313504 5.641754 25.927749
13.358078 7.712374 23.420415
11.504302 6.641928 22.239091
12.141302 7.009784 23.441589
11.532368 6.658300 24.666044
15.725176 7.712374 23.420415
17.579243 6.641928 22.239091
16.942098 7.009784 23.441589
17.550887 6.658300 24.666044
14.541627 9.762341 23.420415
14.541773 11.902981 22.239091
14.541700 11.167396 23.441589
14.541627 11.870490 24.666044
20.639835 3.520760 23.449725
22.985265 3.520760 23.449725
21.812550 5.551962 23.449725
21.812550 2.831015 23.440706
22.996244 4.881233 23.440706
20.628856 4.881233 23.440706
19.305706 5.645154 21.284701
20.268949 5.083485 25.989899
18.787440 5.949916 26.856457
21.812550 1.303173 21.284701
24.319394 5.645154 21.284701
23.356151 5.083485 25.989899
24.837660 5.949916 26.856457
11.975962 6.914325 21.237648
12.028094 6.944424 25.651999
17.107438 6.914325 21.237648
17.055306 6.944424 25.651999
14.541700 11.358313 21.237648
14.541700 11.298116 25.651999
21.802952 2.419963 25.927749
21.803898 0.759261 26.858810
6.098135 21.666204 3.819328
11.527060 18.531812 2.657022
11.509392 18.542013 5.107011
12.139993 18.177935 3.881379
12.040746 18.235235 6.322349
7.270923 19.634875 3.819328
14.541627 13.310429 2.657022
14.541773 13.289775 5.107011
14.541700 14.018056 3.881379
14.541700 13.903456 6.322349
8.443711 21.666204 3.819328
17.556194 18.531812 2.657022
17.574153 18.542013 5.107011
16.943407 18.177935 3.881379
17.042654 18.235235 6.322349
6.087228 20.305856 3.815015
4.233452 19.235410 2.633691
4.870452 19.603265 3.836189
4.261518 19.251781 5.060644
8.454326 20.305856 3.815015
10.308393 19.235410 2.633691
9.671248 19.603265 3.836189
10.280037 19.251781 5.060644
7.270777 22.355823 3.815015
7.270923 24.496463 2.633691
7.270850 23.760877 3.836189
7.270777 24.463971 5.060644
13.368985 16.114241 3.844325
15.714415 16.114241 3.844325
14.541700 18.145444 3.844325
14.541700 15.424496 3.835306
15.725394 17.474715 3.835306
13.358006 17.474715 3.835306
12.034856 18.238636 1.679301
12.998099 17.676966 6.384499
11.516590 18.543398 7.251057
14.541700 13.896655 1.679301
17.048544 18.238636 1.679301
16.085301 17.676966 6.384499
17.566810 18.543398 7.251057
4.705112 19.507807 1.632248
4.757244 19.537905 6.046599
9.836588 19.507807 1.632248
9.784456 19.537905 6.046599
7.270850 23.951795 1.632248
7.270850 23.891598 6.046599
14.532102 15.013445 6.322349
14.533048 13.352743 7.253410
6.098135 21.666204 13.622028
11.527060 18.531812 12.459722
11.509392 18.542013 14.909711
12.139993 18.177935 13.684079
12.040746 18.235235 16.125049
7.270923 19.634875 13.622028
14.541627 13.310429 12.459722
14.541773 13.289775 14.909711
14.541700 14.018056 13.684079
14.541700 13.903456 16.125049
8.443711 21.666204 13.622028
17.556194 18.531812 12.459722
17.574153 18.542013 14.909711
16.943407 18.177935 13.684079
17.042654 18.235235 16.125049
6.087228 20.305856 13.617715
4.233452 19.235410 12.436391
4.870452 19.603265 13.638889
4.261518 19.251781 14.863344
8.454326 20.305856 13.617715
10.308393 19.235410 12.436391
9.671248 19.603265 13.638889
10.280037 19.251781 14.863344
7.270777 22.355823 13.617715
7.270923 24.496463 12.436391
7.270850 23.760877 13.638889
7.270777 24.463971 14.863344
13.368985 16.114241 13.647025
15.714415 16.114241 13.647025
14.541700 18.145444 13.647025
14.541700 15.424496 13.638006
15.725394 17.474715 13.638006
13.358006 17.474715 13.638006
12.034856 18.238636 11.482001
12.998099 17.676966 16.187199
11.516590 18.543398 17.053757
14.541700 13.896655 11.482001
17.048544 18.238636 11.482001
16.085301 17.676966 16.187199
17.566810 18.543398 17.053757
4.705112 19.507807 11.434948
4.757244 19.537905 15.849299
9.836588 19.507807 11.434948
9.784456 19.537905 15.849299
7.270850 23.951795 11.434948
7.270850 23.891598 15.849299
14.532102 15.013445 16.125049
14.533048 13.352743 17.056110
6.098135 21.666204 23.424728
11.527060 18.531812 22.262422
11.509392 18.542013 24.712411
12.139993 18.177935 23.486779
12.040746 18.235235 25.927749
7.270923 19.634875 23.424728
14.541627 13.310429 22.262422
14.541773 13.289775 24.712411
14.541700 14.018056 23.486779
14.541700 13.903456 25.927749
8.443711 21.666204 23.424728
17.556194 18.531812 22.262422
17.574153 18.542013 24.712411
16.943407 18.177935 23.486779
17.042654 18.235235 25.927749
6.087228 20.305856 23.420415
4.233452 19.235410 22.239091
4.870452 19.603265 23.441589
4.261518 19.251781 24.666044
8.454326 20.305856 23.420415
10.308393 19.235410 22.239091
9.671248 19.603265 23.441589
10.280037 19.251781 24.666044
7.270777 22.355823 23.420415
7.270923 24.496463 22.239091
7.270850 23.760877 23.441589
7.270777 24.463971 24.666044
13.368985 16.114241 23.449725
15.714415 16.114241 23.449725
14.541700 18.145444 23.449725
14.541700 15.424496 23.440706
15.725394 17.474715 23.440706
13.358006 17.474715 23.440706
12.034856 18.238636 21.284701
12.998099 17.676966 25.989899
11.516590 18.543398 26.856457
14.541700 13.896655 21.284701
17.048544 18.238636 21.284701
16.085301 17.676966 25.989899
17.566810 18.543398 26.856457
4.705112 19.507807 21.237648
4.757244 19.537905 25.651999
9.836588 19.507807 21.237648
9.784456 19.537905 25.651999
7.270850 23.951795 21.237648
7.270850 23.891598 25.651999
14.532102 15.013445 25.927749
14.533048 13.352743 26.858810
POINT_DATA 576
SCALARS my_scalars float
LOOKUP_TABLE default
1.55
1.7
1.7
1.7
1.55
1.55
1.7
1.7
1.7
1.55
1.55
1.7
1.7
1.7
1.55
1.7
1.7
1.7
1.7
1.7
1.7
1.7
1.7
1.7
1.7
1.7
1.7
1.55
1.55
1.55
1.7
1.7
1.7
1.09
1.09
1.09
1.09
1.09
1.09
1.09
1.09
1.09
1.09
1.09
1.09
1.09
1.09
1.09
1.55
1.7
1.7
1.7
1.55
1.55
1.7
1.7
1.7
1.55
1.55
1.7
1.7
1.7
1.55
1.7
1.7
1.7
1.7
1.7
1.7
1.7
1.7
1.7
1.7
1.7
1.7
1.55
1.55
1.55
1.7
1.7
1.7
1.09
1.09
1.09
1.09
1.09
1.09
1.09
1.09
1.09
1.09
1.09
1.09
1.09
1.09
1.09
1.55
1.7
1.7
1.7
1.55
1.55
1.7
1.7
1.7
1.55
1.55
1.7
1.7
1.7
1.55
1.7
1.7
1.7
1.7
1.7
1.7
1.7
1.7
1.7
1.7
1.7
1.7
1.55
1.55
1.55
1.7
1.7
1.7
1.09
1.09
1.09
1.09
1.09
1.09
1.09
1.09
1.09
1.09
1.09
1.09
1.09
1.09
1.09
1.55
1.7
1.7
1.7
1.55
1.55
1.7
1.7
1.7
1.55
1.55
1.7
1.7
1.7
1.55
1.7
1.7
1.7
1.7
1.7
1.7
1.7
1.7
1.7
1.7
1.7
1.7
1.55
1.55
1.55
1.7
1.7
1.7
1.09
1.09
1.09
1.09
1.09
1.09
1.09
1.09
1.09
1.09
1.09
1.09
1.09
1.09
1.09
1.55
1.7
1.7
1.7
1.55
1.55
1.7
1.7
1.7
1.55
1.55
1.7
1.7
1.7
1.55
1.7
1.7
1.7
1.7
1.7
1.7
1.7
1.7
1.7
1.7
1.7
1.7
1.55
1.55
1.55
1.7
1.7
1.7
1.09
1.09
1.09
1.09
1.09
1.09
1.09
1.09
1.09
1.09
1.09
1.09
1.09
1.09
1.09
1.55
1.7
1.7
1.7
1.55
1.55
1.7
1.7
1.7
1.55
1.55
1.7
1.7
1.7
1.55
1.7
1.7
1.7
1.7
1.7
1.7
1.7
1.7
1.7
1.7
1.7
1.7
1.55
1.55
1.55
1.7
1.7
1.7
1.09
1.09
1.09
1.09
1.09
1.09
1.09
1.09
1.09
1.09
1.09
1.09
1.09
1.09
1.09
1.55
1.7
1.7
1.7
1.55
1.55
1.7
1.7
1.7
1.55
1.55
1.7
1.7
1.7
1.55
1.7
1.7
1.7
1.7
1.7
1.7
1.7
1.7
1.7
1.7
1.7
1.7
1.55
1.55
1.55
1.7
1.7
1.7
1.09
1.09
1.09
1.09
1.09
1.09
1.09
1.09
1.09
1.09
1.09
1.09
1.09
1.09
1.09
1.55
1.7
1.7
1.7
1.55
1.55
1.7
1.7
1.7
1.55
1.55
1.7
1.7
1.7
1.55
1.7
1.7
1.7
1.7
1.7
1.7
1.7
1.7
1.7
1.7
1.7
1.7
1.55
1.55
1.55
1.7
1.7
1.7
1.09
1.09
1.09
1.09
1.09
1.09
1.09
1.09
1.09
1.09
1.09
1.09
1.09
1.09
1.09
1.55
1.7
1.7
1.7
1.55
1.55
1.7
1.7
1.7
1.55
1.55
1.7
1.7
1.7
1.55
1.7
1.7
1.7
1.7
1.7
1.7
1.7
1.7
1.7
1.7
1.7
1.7
1.55
1.55
1.55
1.7
1.7
1.7
1.09
1.09
1.09
1.09
1.09
1.09
1.09
1.09
1.09
1.09
1.09
1.09
1.09
1.09
1.09
1.55
1.7
1.7
1.7
1.55
1.55
1.7
1.7
1.7
1.55
1.55
1.7
1.7
1.7
1.55
1.7
1.7
1.7
1.7
1.7
1.7
1.7
1.7
1.7
1.7
1.7
1.7
1.55
1.55
1.55
1.7
1.7
1.7
1.09
1.09
1.09
1.09
1.09
1.09
1.09
1.09
1.09
1.09
1.09
1.09
1.09
1.09
1.09
1.55
1.7
1.7
1.7
1.55
1.55
1.7
1.7
1.7
1.55
1.55
1.7
1.7
1.7
1.55
1.7
1.7
1.7
1.7
1.7
1.7
1.7
1.7
1.7
1.7
1.7
1.7
1.55
1.55
1.55
1.7
1.7
1.7
1.09
1.09
1.09
1.09
1.09
1.09
1.09
1.09
1.09
1.09
1.09
1.09
1.09
1.09
1.09
1.55
1.7
1.7
1.7
1.55
1.55
1.7
1.7
1.7
1.55
1.55
1.7
1.7
1.7
1.55
1.7
1.7
1.7
1.7
1.7
1.7
1.7
1.7
1.7
1.7
1.7
1.7
1.55
1.55
1.55
1.7
1.7
1.7
1.09
1.09
1.09
1.09
1.09
1.09
1.09
1.09
1.09
1.09
1.09
1.09
1.09
1.09
1.09
VECTORS vectors float
0 0 0
0.3125 0 0
0.3125 0 0
0.3125 0 0
0 0 0
0 0 0
0.3125 0 0
0.3125 0 0
0.3125 0 0
0 0 0
0 0 0
0.3125 0 0
0.3125 0 0
0.3125 0 0
0 0 0
0.3125 0 0
0.3125 0 0
0.3125 0 0
0.3125 0 0
0.3125 0 0
0.3125 0 0
0.3125 0 0
0.3125 0 0
0.3125 0 0
0.3125 0 0
0.3125 0 0
0.3125 0 0
0 0 0
0 0 0
0 0 0
0.3125 0 0
0.3125 0 0
0.3125 0 0
0.25 0 0
0.25 0 0
0.25 0 0
0.25 0 0
0.25 0 0
0.25 0 0
0.25 0 0
0.25 0 0
0.25 0 0
0.25 0 0
0.25 0 0
0.25 0 0
0.25 0 0
0.25 0 0
0.25 0 0
0 0 0
0.3125 0 0
0.3125 0 0
0.3125 0 0
0 0 0
0 0 0
0.3125 0 0
0.3125 0 0
0.3125 0 0
0 0 0
0 0 0
0.3125 0 0
0.3125 0 0
0.3125 0 0
0 0 0
0.3125 0 0
0.3125 0 0
0.3125 0 0
0.3125 0 0
0.3125 0 0
0.3125 0 0
0.3125 0 0
0.3125 0 0
0.3125 0 0
0.3125 0 0
0.3125 0 0
0.3125 0 0
0 0 0
0 0 0
0 0 0
0.3125 0 0
0.3125 0 0
0.3125 0 0
0.25 0 0
0.25 0 0
0.25 0 0
0.25 0 0
0.25 0 0
0.25 0 0
0.25 0 0
0.25 0 0
0.25 0 0
0.25 0 0
0.25 0 0
0.25 0 0
0.25 0 0
0.25 0 0
0.25 0 0
0 0 0
0.3125 0 0
0.3125 0 0
0.3125 0 0
0 0 0
0 0 0
0.3125 0 0
0.3125 0 0
0.3125 0 0
0 0 0
0 0 0
0.3125 0 0
0.3125 0 0
0.3125 0 0
0 0 0
0.3125 0 0
0.3125 0 0
0.3125 0 0
0.3125 0 0
0.3125 0 0
0.3125 0 0
0.3125 0 0
0.3125 0 0
0.3125 0 0
0.3125 0 0
0.3125 0 0
0.3125 0 0
0 0 0
0 0 0
0 0 0
0.3125 0 0
0.3125 0 0
0.3125 0 0
0.25 0 0
0.25 0 0
0.25 0 0
0.25 0 0
0.25 0 0
0.25 0 0
0.25 0 0
0.25 0 0
0.25 0 0
0.25 0 0
0.25 0 0
0.25 0 0
0.25 0 0
0.25 0 0
0.25 0 0
0 0 0
0.3125 0 0
0.3125 0 0
0.3125 0 0
0 0 0
0 0 0
0.3125 0 0
0.3125 0 0
0.3125 0 0
0 0 0
0 0 0
0.3125 0 0
0.3125 0 0
0.3125 0 0
0 0 0
0.3125 0 0
0.3125 0 0
0.3125 0 0
0.3125 0 0
0.3125 0 0
0.3125 0 0
0.3125 0 0
0.3125 0 0
0.3125 0 0
0.3125 0 0
0.3125 0 0
0.3125 0 0
0 0 0
0 0 0
0 0 0
0.3125 0 0
0.3125 0 0
0.3125 0 0
0.25 0 0
0.25 0 0
0.25 0 0
0.25 0 0
0.25 0 0
0.25 0 0
0.25 0 0
0.25 0 0
0.25 0 0
0.25 0 0
0.25 0 0
0.25 0 0
0.25 0 0
0.25 0 0
0.25 0 0
0 0 0
0.3125 0 0
0.3125 0 0
0.3125 0 0
0 0 0
0 0 0
0.3125 0 0
0.3125 0 0
0.3125 0 0
0 0 0
0 0 0
0.3125 0 0
0.3125 0 0
0.3125 0 0
0 0 0
0.3125 0 0
0.3125 0 0
0.3125 0 0
0.3125 0 0
0.3125 0 0
0.3125 0 0
0.3125 0 0
0.3125 0 0
0.3125 0 0
0.3125 0 0
0.3125 0 0
0.3125 0 0
0 0 0
0 0 0
0 0 0
0.3125 0 0
0.3125 0 0
0.3125 0 0
0.25 0 0
0.25 0 0
0.25 0 0
0.25 0 0
0.25 0 0
0.25 0 0
0.25 0 0
0.25 0 0
0.25 0 0
0.25 0 0
0.25 0 0
0.25 0 0
0.25 0 0
0.25 0 0
0.25 0 0
0 0 0
0.3125 0 0
0.3125 0 0
0.3125 0 0
0 0 0
0 0 0
0.3125 0 0
0.3125 0 0
0.3125 0 0
0 0 0
0 0 0
0.3125 0 0
0.3125 0 0
0.3125 0 0
0 0 0
0.3125 0 0
0.3125 0 0
0.3125 0 0
0.3125 0 0
0.3125 0 0
0.3125 0 0
0.3125 0 0
0.3125 0 0
0.3125 0 0
0.3125 0 0
0.3125 0 0
0.3125 0 0
0 0 0
0 0 0
0 0 0
0.3125 0 0
0.3125 0 0
0.3125 0 0
0.25 0 0
0.25 0 0
0.25 0 0
0.25 0 0
0.25 0 0
0.25 0 0
0.25 0 0
0.25 0 0
0.25 0 0
0.25 0 0
0.25 0 0
0.25 0 0
0.25 0 0
0.25 0 0
0.25 0 0
0 0 0
0.3125 0 0
0.3125 0 0
0.3125 0 0
0 0 0
0 0 0
0.3125 0 0
0.3125 0 0
0.3125 0 0
0 0 0
0 0 0
0.3125 0 0
0.3125 0 0
0.3125 0 0
0 0 0
0.3125 0 0
0.3125 0 0
0.3125 0 0
0.3125 0 0
0.3125 0 0
0.3125 0 0
0.3125 0 0
0.3125 0 0
0.3125 0 0
0.3125 0 0
0.3125 0 0
0.3125 0 0
0 0 0
0 0 0
0 0 0
0.3125 0 0
0.3125 0 0
0.3125 0 0
0.25 0 0
0.25 0 0
0.25 0 0
0.25 0 0
0.25 0 0
0.25 0 0
0.25 0 0
0.25 0 0
0.25 0 0
0.25 0 0
0.25 0 0
0.25 0 0
0.25 0 0
0.25 0 0
0.25 0 0
0 0 0
0.3125 0 0
0.3125 0 0
0.3125 0 0
0 0 0
0 0 0
0.3125 0 0
0.3125 0 0
0.3125 0 0
0 0 0
0 0 0
0.3125 0 0
0.3125 0 0
0.3125 0 0
0 0 0
0.3125 0 0
0.3125 0 0
0.3125 0 0
0.3125 0 0
0.3125 0 0
0.3125 0 0
0.3125 0 0
0.3125 0 0
0.3125 0 0
0.3125 0 0
0.3125 0 0
0.3125 0 0
0 0 0
0 0 0
0 0 0
0.3125 0 0
0.3125 0 0
0.3125 0 0
0.25 0 0
0.25 0 0
0.25 0 0
0.25 0 0
0.25 0 0
0.25 0 0
0.25 0 0
0.25 0 0
0.25 0 0
0.25 0 0
0.25 0 0
0.25 0 0
0.25 0 0
0.25 0 0
0.25 0 0
0 0 0
0.3125 0 0
0.3125 0 0
0.3125 0 0
0 0 0
0 0 0
0.3125 0 0
0.3125 0 0
0.3125 0 0
0 0 0
0 0 0
0.3125 0 0
0.3125 0 0
0.3125 0 0
0 0 0
0.3125 0 0
0.3125 0 0
0.3125 0 0
0.3125 0 0
0.3125 0 0
0.3125 0 0
0.3125 0 0
0.3125 0 0
0.3125 0 0
0.3125 0 0
0.3125 0 0
0.3125 0 0
0 0 0
0 0 0
0 0 0
0.3125 0 0
0.3125 0 0
0.3125 0 0
0.25 0 0
0.25 0 0
0.25 0 0
0.25 0 0
0.25 0 0
0.25 0 0
0.25 0 0
0.25 0 0
0.25 0 0
0.25 0 0
0.25 0 0
0.25 0 0
0.25 0 0
0.25 0 0
0.25 0 0
0 0 0
0.3125 0 0
0.3125 0 0
0.3125 0 0
0 0 0
0 0 0
0.3125 0 0
0.3125 0 0
0.3125 0 0
0 0 0
0 0 0
0.3125 0 0
0.3125 0 0
0.3125 0 0
0 0 0
0.3125 0 0
0.3125 0 0
0.3125 0 0
0.3125 0 0
0.3125 0 0
0.3125 0 0
0.3125 0 0
0.3125 0 0
0.3125 0 0
0.3125 0 0
0.3125 0 0
0.3125 0 0
0 0 0
0 0 0
0 0 0
0.3125 0 0
0.3125 0 0
0.3125 0 0
0.25 0 0
0.25 0 0
0.25 0 0
0.25 0 0
0.25 0 0
0.25 0 0
0.25 0 0
0.25 0 0
0.25 0 0
0.25 0 0
0.25 0 0
0.25 0 0
0.25 0 0
0.25 0 0
0.25 0 0
0 0 0
0.3125 0 0
0.3125 0 0
0.3125 0 0
0 0 0
0 0 0
0.3125 0 0
0.3125 0 0
0.3125 0 0
0 0 0
0 0 0
0.3125 0 0
0.3125 0 0
0.3125 0 0
0 0 0
0.3125 0 0
0.3125 0 0
0.3125 0 0
0.3125 0 0
0.3125 0 0
0.3125 0 0
0.3125 0 0
0.3125 0 0
0.3125 0 0
0.3125 0 0
0.3125 0 0
0.3125 0 0
0 0 0
0 0 0
0 0 0
0.3125 0 0
0.3125 0 0
0.3125 0 0
0.25 0 0
0.25 0 0
0.25 0 0
0.25 0 0
0.25 0 0
0.25 0 0
0.25 0 0
0.25 0 0
0.25 0 0
0.25 0 0
0.25 0 0
0.25 0 0
0.25 0 0
0.25 0 0
0.25 0 0
0 0 0
0.3125 0 0
0.3125 0 0
0.3125 0 0
0 0 0
0 0 0
0.3125 0 0
0.3125 0 0
0.3125 0 0
0 0 0
0 0 0
0.3125 0 0
0.3125 0 0
0.3125 0 0
0 0 0
0.3125 0 0
0.3125 0 0
0.3125 0 0
0.3125 0 0
0.3125 0 0
0.3125 0 0
0.3125 0 0
0.3125 0 0
0.3125 0 0
0.3125 0 0
0.3125 0 0
0.3125 0 0
0 0 0
0 0 0
0 0 0
0.3125 0 0
0.3125 0 0
0.3125 0 0
0.25 0 0
0.25 0 0
0.25 0 0
0.25 0 0
0.25 0 0
0.25 0 0
0.25 0 0
0.25 0 0
0.25 0 0
0.25 0 0
0.25 0 0
0.25 0 0
0.25 0 0
0.25 0 0
0.25 0 0
