Compiler and run-time data
===========================================================================
RASPA 2.0.42
Compiled as a 64-bits application
Compiler: gcc 9.4.0
Compile Date = May  7 2023, Compile Time = 16:02:29

Sun May  7 19:15:43 2023
Simulation started on Sunday, May 07.
The start time was 07:15 PM.

Hostname:    A6000
OS type:     Linux on x86_64
OS release:  5.15.0-71-generic
OS version:  #78~20.04.1-Ubuntu SMP Wed Apr 19 11:26:48 UTC 2023

Simulation
===========================================================================
Dimensions: 3
Random number seed: 1683458143
RASPA directory set to: /home/zhangjinhang/anaconda3/envs/molppo/lib/python3.6/site-packages/RASPA2
String appended to output-files: 
Number of cycles: 1000
Number of initializing cycles: 1000
Number of equilibration cycles: 0
Print every: 100
Triclinic boundary condition applied
Timestep: 0.000500
	Degrees of freedom:                        0
	Translational Degrees of freedom:          0
	Rotational Degrees of freedom:             0
	Degrees of freedom Framework:              0


Mutual consistent basic set of units:
======================================
Unit of temperature: Kelvin
Unit of length:      1e-10 [m]
Unit of time:        1e-12 [s]
Unit of mass:        1.66054e-27 [kg]
Unit of charge:      1.60218e-19 [C/particle]

Derived units and their conversion factors:
===========================================
Unit of energy:              1.66054e-23 [J]
Unit of force:               1.66054e-13 [N]
Unit of pressure:            1.66054e+07 [Pa]
Unit of velocity:            100 [m/s]
Unit of acceleration:        1e-08 [m^2/s]
Unit of diffusion:           1e-08 [m^2/s]
Unit of dipole moment:       1.60218e-29 [C.m]
Unit of electric potential:  0.000103643 [V]
Unit of electric field:      1.03643e+06 [V]
Unit of polarizability:      1.54587e-35 [-]
Unit of Coulomb potential:   167101.0800066561  [K]
Unit of dielectric constant: 0.0000154587       [s^2 C^2/(kg m^3)]
Unit of wave vectors:        5.3088374589       [cm^1]
Boltzmann constant:          0.8314464919       [-]

Internal conversion factors:
===========================================
Energy to Kelvin:                                    1.2027242847
FH correction factor                                 2.0211930949
Heat capacity conversion factor:                    10.0000088723
From Debye to internal units:                        4.8032067991
Isothermal compressibility conversion factor:        0.0000000602

Energy conversion factors:
===========================================
From mdyne/A to kcal/mol/A^2:           143.933
From mdyne/A to kj/mol/A^2:             602.214
From mdyne/A to K/A^2:                  72429.7
From mdyne A/rad^2 to kcal/mol/deg^2:   0.0438444


Properties computed
===========================================================================
Movies: no
Radial Distribution Function: no
Number of molecules GCMC histogram: no
Histogram of the molecule positions: no
Free energy profiles: no
Pore Size Distribution Function: no
End-to-end distance: no
Histogram of the energy of the system: no
Compute thermodynamic factors: no
Framework spacing histograms: no
Residence times histograms: no
Distance histograms: no
Bend Angle histograms: no
Dihedral angle histograms: no
Angle between planes histograms: no
Molecule properties: no
Infra-red spectra: no
Mean-squared displacement using modified order-N algorithm: no
Velocity-autocorrelation function modified order-N algorithm: no
Rotational velocity-autocorrelation function modified order-N algorithm: no
Molecular orientation-autocorrelation function modified order-N algorithm: no
Bond orientation-autocorrelation function modified order-N algorithm: no
Mean-squared displacement (conventional algorithm): no
Velocity-autocorrelation function (conventional algorithm): no
3D density grid for adsorbates: no
Compute cation an/or adsorption sites: no
dcTST snapshots: no
Compute pressure and stress: no


VTK
===========================================================================
VTK fractional-range position framework atoms: [-0.001000,1.001000] [-0.001000,1.001000] [-0.001000,1.001000]
VTK fractional-range position framework bonds: [-0.151000,1.151000] [-0.151000,1.151000] [-0.151000,1.151000]
VTK fractional-range com-position adsorbate molecules: [-0.101000,1.101000] [-0.101000,1.101000] [-0.101000,1.101000]
VTK fractional-range com-position cation molecules: [-0.101000,1.101000] [-0.101000,1.101000] [-0.101000,1.101000]
	3D free energy grid made for the full simulation-cell


Thermo/Baro-stat NHC parameters
===========================================================================
External temperature: 298 [K]
Beta: 0.00403598 [energy unit]
External Pressure: 0 [Pa]


Thermostat chain-length: 3
Timescale parameter for thermostat: 0.150000 [ps]
Barostat chain-length:   3
Timescale parameter for barostat:   0.150000 [ps]

Number of Yoshida-Suzuki decomposition steps: 5
Number of respa steps: 5


Method and settings for electrostatics
===============================================================================
Dielectric constant of the medium : 1.000000
Charge from charge-equilibration: no
Ewald summation is used (exact solution of a periodic system)
Relative precision                : 1e-06
Alpha convergence parameter       : 0.265058
kvec (x,y,z)                      : 8 8 8


CFC-RXMC parameters
===========================================================================
Number of reactions: 0


Rattle parameters
===========================================================================
Distance constraint type: r^2-r^2_0
Bend angle constraint type: theta-theta_0
Dihedral angle constraint type: phi-phi_0
Inversion-bend angle constraint type: chi-chi_0
Out-of-plane distance constraint type: r-r_0


Spectra parameters
===========================================================================
Compute normal modes: no


Minimization parameters
===========================================================================
Generalized coordinates are: Cartesian center-of-mass, elements of the orientational matrix p1,p2,p3 and strain
Potential derivatives are evaluated: analytically
Translation of the system is removed from the generalized Hessian: no
Rotation of the system is removed from the generalized Hessian: no
Maximum step-length: 0.3
Convergence factor: 1
Maximum number of minimization steps: 10000
Use gradients in the line-minimizations: yes
RMS gradient tolerance: 1e-06
Maximum gradient tolerance: 1e-06

Distance constraints: 0
Angle constraints: 0
Dihedral constraints: 0

Improper dihedral constraints: 0

Inversion-bend constraints: 0

Out-of-plane constraints: 0

Harmonic distance constraints: 0
Harmonic angle constraints: 0
Harmonic dihedral constraints: 0

Dihedral mid-point measurements: 0

All framework atoms are fixed

Fixed adsorbate atoms:  
Fixed adsorbate groups (center-of-mass):  
Fixed adsorbate groups (orientation):  

Fixed cation atoms:  
Fixed cation groups (center-of-mass):  
Fixed cation groups (orientation):  


dcTST parameters
===========================================================================
Free energy profiles computed: no
Free energy profiles written every 5000 cycles
Free energy mapping: mapped to a,b,c-coordinates
BarrierPosition:       0.0000000000       0.0000000000       0.0000000000
BarrierNormal:         0.0000000000       0.0000000000       0.0000000000
Start with a molecule on top of the barrier: no
Maximum distance to barrier (e.g. distance to minumum free energy):       0.0000000000 [A]
Maximum trajectory time:      10.0000000000 [ps]
Each configuration is used with 5 different initial velocities


Cbmc parameters
===========================================================================
Biasing method: using only the VDW part
Number of trial positions:                                       10
Number of trial positions (reinsertion):                         10
Number of trial positions (partial reinsertion):                 10
Number of trial positions (identity-change):                     10
Number of trial positions (Gibbs particle transfer):             10
Number of trial positions (insertion/deletion):                  10
Number of trial positions (Widom insertion):                     10
Number of trial positions coupled Torsion-selection:             100
Number of trial positions first bead:                            10
Number of trial positions first bead (reinsertion):              10
Number of trial positions first bead (partial reinsertion):      10
Number of trial positions first bead (identity-change):          10
Number of trial positions first bead (Gibbs particle transfer):  10
Number of trial positions first bead (insertion/deletion):       10
Number of trial positions first bead (Widom insertion):          10
Number of trial moves per open bead:                             150
Target acceptance ratio small-mc scheme:                         0.400000
Energy overlap criteria:                                         1e+07
Minimal Rosenbluth factor:                                       1e-150


Pseudo atoms: 71
===========================================================================
Pseudo Atom[   0] Name UNIT     Oxidation:          Element: H    pdb-name: H    Scat. Types:   1   1 Mass=1.000000000  B-factor:0.000   
                 Charge=1.000000000          Polarization=0.000000000  [A^3] (considered a charged atom and no polarization)  Interactions: yes
                 Anisotropic factor:    0.000 [-] (Absolute), Radius:    1.000 [A], Framework-atom:  no
Pseudo Atom[   1] Name Ar       Oxidation: +0       Element: Ar   pdb-name: Ar   Scat. Types:  19  18 Mass=39.948000000 B-factor:1.000   
                 Charge=0.000000000          Polarization=0.000000000  [A^3] (considered a chargeless atom and no polarization)  Interactions: yes
                 Anisotropic factor:    0.000 [-] (Relative), Radius:    1.000 [A], Framework-atom:  no
Pseudo Atom[   2] Name He       Oxidation: +0       Element: He   pdb-name: He   Scat. Types:   3   2 Mass=4.002602000  B-factor:1.000   
                 Charge=0.000000000          Polarization=0.000000000  [A^3] (considered a chargeless atom and no polarization)  Interactions: yes
                 Anisotropic factor:    0.000 [-] (Relative), Radius:    1.000 [A], Framework-atom:  no
Pseudo Atom[   3] Name O_o2     Oxidation: +0       Element: O    pdb-name: O    Scat. Types:   9   8 Mass=15.999400000 B-factor:1.000   
                 Charge=-0.112000000         Polarization=0.000000000  [A^3] (considered a charged atom and no polarization)  Interactions: yes
                 Anisotropic factor:    0.000 [-] (Relative), Radius:    1.000 [A], Framework-atom:  no
Pseudo Atom[   4] Name O_com    Oxidation: +0       Element: M    pdb-name: M    Scat. Types:  -1  12 Mass=0.000000000  B-factor:1.000   
                 Charge=0.224000000          Polarization=0.000000000  [A^3] (considered a charged atom and no polarization)  Interactions: yes
                 Anisotropic factor:    0.000 [-] (Relative), Radius:    1.000 [A], Framework-atom:  no
Pseudo Atom[   5] Name N_n2     Oxidation: +0       Element: N    pdb-name: N    Scat. Types:   8   7 Mass=14.006700000 B-factor:1.000   
                 Charge=-0.482000000         Polarization=0.000000000  [A^3] (considered a charged atom and no polarization)  Interactions: yes
                 Anisotropic factor:    0.000 [-] (Relative), Radius:    0.700 [A], Framework-atom:  no
Pseudo Atom[   6] Name N_com    Oxidation: +0       Element: N    pdb-name: N    Scat. Types:   8   7 Mass=0.000000000  B-factor:1.000   
                 Charge=0.964000000          Polarization=0.000000000  [A^3] (considered a charged atom and no polarization)  Interactions: yes
                 Anisotropic factor:    0.000 [-] (Relative), Radius:    0.700 [A], Framework-atom:  no
Pseudo Atom[   7] Name C_co     Oxidation: +0       Element: C    pdb-name: C    Scat. Types:   7   6 Mass=12.000000000 B-factor:1.000   
                 Charge=-0.242400000         Polarization=0.000000000  [A^3] (considered a charged atom and no polarization)  Interactions: yes
                 Anisotropic factor:    0.000 [-] (Relative), Radius:    1.000 [A], Framework-atom:  no
Pseudo Atom[   8] Name O_co     Oxidation: +0       Element: O    pdb-name: O    Scat. Types:   9   8 Mass=15.999400000 B-factor:1.000   
                 Charge=-0.274400000         Polarization=0.000000000  [A^3] (considered a charged atom and no polarization)  Interactions: yes
                 Anisotropic factor:    0.000 [-] (Relative), Radius:    1.000 [A], Framework-atom:  no
Pseudo Atom[   9] Name COM_co   Oxidation: +0       Element: CO   pdb-name: CO   Scat. Types:  28  27 Mass=0.000000000  B-factor:1.000   
                 Charge=0.516800000          Polarization=0.000000000  [A^3] (considered a charged atom and no polarization)  Interactions: yes
                 Anisotropic factor:    0.000 [-] (Relative), Radius:    1.000 [A], Framework-atom:  no
Pseudo Atom[  10] Name C_co2    Oxidation: +0       Element: C    pdb-name: C    Scat. Types:   7   6 Mass=12.010700000 B-factor:1.000   
                 Charge=0.700000000          Polarization=0.000000000  [A^3] (considered a charged atom and no polarization)  Interactions: yes
                 Anisotropic factor:    0.000 [-] (Relative), Radius:    0.720 [A], Framework-atom:  no
Pseudo Atom[  11] Name O_co2    Oxidation: +0       Element: O    pdb-name: O    Scat. Types:   9   8 Mass=15.999400000 B-factor:1.000   
                 Charge=-0.350000000         Polarization=0.000000000  [A^3] (considered a charged atom and no polarization)  Interactions: yes
                 Anisotropic factor:    0.000 [-] (Relative), Radius:    0.680 [A], Framework-atom:  no
Pseudo Atom[  12] Name N_nh3    Oxidation: +0       Element: N    pdb-name: N    Scat. Types:   8   7 Mass=14.000000000 B-factor:1.000   
                 Charge=0.000000000          Polarization=0.000000000  [A^3] (considered a chargeless atom and no polarization)  Interactions: yes
                 Anisotropic factor:    0.000 [-] (Relative), Radius:    1.000 [A], Framework-atom:  no
Pseudo Atom[  13] Name H_nh3    Oxidation: +0       Element: H    pdb-name: H    Scat. Types:   1   1 Mass=1.007000000  B-factor:1.000   
                 Charge=0.410000000          Polarization=0.000000000  [A^3] (considered a charged atom and no polarization)  Interactions: yes
                 Anisotropic factor:    0.000 [-] (Relative), Radius:    1.000 [A], Framework-atom:  no
Pseudo Atom[  14] Name M_nh3    Oxidation: +0       Element: M    pdb-name: M    Scat. Types:  -1  12 Mass=0.000000000  B-factor:1.000   
                 Charge=-1.230000000         Polarization=0.000000000  [A^3] (considered a charged atom and no polarization)  Interactions: yes
                 Anisotropic factor:    0.000 [-] (Relative), Radius:    1.000 [A], Framework-atom:  no
Pseudo Atom[  15] Name Hw       Oxidation: +0       Element: H    pdb-name: H    Scat. Types:   1   1 Mass=1.007000000  B-factor:1.000   
                 Charge=0.520000000          Polarization=0.000000000  [A^3] (considered a charged atom and no polarization)  Interactions: yes
                 Anisotropic factor:    0.000 [-] (Relative), Radius:    1.000 [A], Framework-atom:  no
Pseudo Atom[  16] Name Ow       Oxidation: +0       Element: O    pdb-name: O    Scat. Types:   9   8 Mass=15.999400000 B-factor:1.000   
                 Charge=0.000000000          Polarization=0.000000000  [A^3] (considered a chargeless atom and no polarization)  Interactions: yes
                 Anisotropic factor:    0.000 [-] (Relative), Radius:    1.000 [A], Framework-atom:  no
Pseudo Atom[  17] Name M        Oxidation: +0       Element: M    pdb-name: M    Scat. Types:  -1  12 Mass=0.000000000  B-factor:1.000   
                 Charge=-1.040000000         Polarization=0.000000000  [A^3] (considered a charged atom and no polarization)  Interactions: yes
                 Anisotropic factor:    0.000 [-] (Relative), Radius:    1.000 [A], Framework-atom:  no
Pseudo Atom[  18] Name CH4_sp3  Oxidation: +0       Element: C    pdb-name: C    Scat. Types:   7   6 Mass=16.042460000 B-factor:1.000   
                 Charge=0.000000000          Polarization=0.000000000  [A^3] (considered a chargeless atom and no polarization)  Interactions: yes
                 Anisotropic factor:    0.000 [-] (Relative), Radius:    1.000 [A], Framework-atom:  no
Pseudo Atom[  19] Name CH3_sp3  Oxidation: +0       Element: C    pdb-name: C    Scat. Types:   7   6 Mass=15.034520000 B-factor:1.000   
                 Charge=0.000000000          Polarization=0.000000000  [A^3] (considered a chargeless atom and no polarization)  Interactions: yes
                 Anisotropic factor:    0.000 [-] (Relative), Radius:    1.000 [A], Framework-atom:  no
Pseudo Atom[  20] Name CH2_sp3  Oxidation: +0       Element: C    pdb-name: C    Scat. Types:   7   6 Mass=14.026580000 B-factor:1.000   
                 Charge=0.000000000          Polarization=0.000000000  [A^3] (considered a chargeless atom and no polarization)  Interactions: yes
                 Anisotropic factor:    0.000 [-] (Relative), Radius:    1.000 [A], Framework-atom:  no
Pseudo Atom[  21] Name CH_sp3   Oxidation: +0       Element: C    pdb-name: C    Scat. Types:   7   6 Mass=13.018640000 B-factor:1.000   
                 Charge=0.000000000          Polarization=0.000000000  [A^3] (considered a chargeless atom and no polarization)  Interactions: yes
                 Anisotropic factor:    0.000 [-] (Relative), Radius:    1.000 [A], Framework-atom:  no
Pseudo Atom[  22] Name C_sp3    Oxidation: +0       Element: C    pdb-name: C    Scat. Types:   7   6 Mass=12.000000000 B-factor:1.000   
                 Charge=0.000000000          Polarization=0.000000000  [A^3] (considered a chargeless atom and no polarization)  Interactions: yes
                 Anisotropic factor:    0.000 [-] (Relative), Radius:    1.000 [A], Framework-atom:  no
Pseudo Atom[  23] Name N1       Oxidation:          Element: N    pdb-name: N    Scat. Types:   8   7 Mass=14.006703212 B-factor:0.000   
                 Charge=0.000000000  (-na-)  Polarization=1.100000000  [A^3] (considered a chargeless atom and no polarization)  Interactions: yes
                 Anisotropic factor:    0.000 [-] (Absolute), Radius:    0.710 [A], Framework-atom: yes (charge definition not found)
Pseudo Atom[  24] Name C2       Oxidation:          Element: C    pdb-name: C    Scat. Types:   7   6 Mass=12.010735897 B-factor:0.000   
                 Charge=0.000000000  (-na-)  Polarization=1.760000000  [A^3] (considered a chargeless atom and no polarization)  Interactions: yes
                 Anisotropic factor:    0.000 [-] (Absolute), Radius:    0.750 [A], Framework-atom: yes (charge definition not found)
Pseudo Atom[  25] Name C3       Oxidation:          Element: C    pdb-name: C    Scat. Types:   7   6 Mass=12.010735897 B-factor:0.000   
                 Charge=0.000000000  (-na-)  Polarization=1.760000000  [A^3] (considered a chargeless atom and no polarization)  Interactions: yes
                 Anisotropic factor:    0.000 [-] (Absolute), Radius:    0.750 [A], Framework-atom: yes (charge definition not found)
Pseudo Atom[  26] Name C4       Oxidation:          Element: C    pdb-name: C    Scat. Types:   7   6 Mass=12.010735897 B-factor:0.000   
                 Charge=0.000000000  (-na-)  Polarization=1.760000000  [A^3] (considered a chargeless atom and no polarization)  Interactions: yes
                 Anisotropic factor:    0.000 [-] (Absolute), Radius:    0.750 [A], Framework-atom: yes (charge definition not found)
Pseudo Atom[  27] Name N5       Oxidation:          Element: N    pdb-name: N    Scat. Types:   8   7 Mass=14.006703212 B-factor:0.000   
                 Charge=0.000000000  (-na-)  Polarization=1.100000000  [A^3] (considered a chargeless atom and no polarization)  Interactions: yes
                 Anisotropic factor:    0.000 [-] (Absolute), Radius:    0.710 [A], Framework-atom: yes (charge definition not found)
Pseudo Atom[  28] Name N6       Oxidation:          Element: N    pdb-name: N    Scat. Types:   8   7 Mass=14.006703212 B-factor:0.000   
                 Charge=0.000000000  (-na-)  Polarization=1.100000000  [A^3] (considered a chargeless atom and no polarization)  Interactions: yes
                 Anisotropic factor:    0.000 [-] (Absolute), Radius:    0.710 [A], Framework-atom: yes (charge definition not found)
Pseudo Atom[  29] Name C7       Oxidation:          Element: C    pdb-name: C    Scat. Types:   7   6 Mass=12.010735897 B-factor:0.000   
                 Charge=0.000000000  (-na-)  Polarization=1.760000000  [A^3] (considered a chargeless atom and no polarization)  Interactions: yes
                 Anisotropic factor:    0.000 [-] (Absolute), Radius:    0.750 [A], Framework-atom: yes (charge definition not found)
Pseudo Atom[  30] Name C8       Oxidation:          Element: C    pdb-name: C    Scat. Types:   7   6 Mass=12.010735897 B-factor:0.000   
                 Charge=0.000000000  (-na-)  Polarization=1.760000000  [A^3] (considered a chargeless atom and no polarization)  Interactions: yes
                 Anisotropic factor:    0.000 [-] (Absolute), Radius:    0.750 [A], Framework-atom: yes (charge definition not found)
Pseudo Atom[  31] Name C9       Oxidation:          Element: C    pdb-name: C    Scat. Types:   7   6 Mass=12.010735897 B-factor:0.000   
                 Charge=0.000000000  (-na-)  Polarization=1.760000000  [A^3] (considered a chargeless atom and no polarization)  Interactions: yes
                 Anisotropic factor:    0.000 [-] (Absolute), Radius:    0.750 [A], Framework-atom: yes (charge definition not found)
Pseudo Atom[  32] Name N10      Oxidation:          Element: N    pdb-name: N    Scat. Types:   8   7 Mass=14.006703212 B-factor:0.000   
                 Charge=0.000000000  (-na-)  Polarization=1.100000000  [A^3] (considered a chargeless atom and no polarization)  Interactions: yes
                 Anisotropic factor:    0.000 [-] (Absolute), Radius:    0.710 [A], Framework-atom: yes (charge definition not found)
Pseudo Atom[  33] Name N11      Oxidation:          Element: N    pdb-name: N    Scat. Types:   8   7 Mass=14.006703212 B-factor:0.000   
                 Charge=0.000000000  (-na-)  Polarization=1.100000000  [A^3] (considered a chargeless atom and no polarization)  Interactions: yes
                 Anisotropic factor:    0.000 [-] (Absolute), Radius:    0.710 [A], Framework-atom: yes (charge definition not found)
Pseudo Atom[  34] Name C12      Oxidation:          Element: C    pdb-name: C    Scat. Types:   7   6 Mass=12.010735897 B-factor:0.000   
                 Charge=0.000000000  (-na-)  Polarization=1.760000000  [A^3] (considered a chargeless atom and no polarization)  Interactions: yes
                 Anisotropic factor:    0.000 [-] (Absolute), Radius:    0.750 [A], Framework-atom: yes (charge definition not found)
Pseudo Atom[  35] Name C13      Oxidation:          Element: C    pdb-name: C    Scat. Types:   7   6 Mass=12.010735897 B-factor:0.000   
                 Charge=0.000000000  (-na-)  Polarization=1.760000000  [A^3] (considered a chargeless atom and no polarization)  Interactions: yes
                 Anisotropic factor:    0.000 [-] (Absolute), Radius:    0.750 [A], Framework-atom: yes (charge definition not found)
Pseudo Atom[  36] Name C14      Oxidation:          Element: C    pdb-name: C    Scat. Types:   7   6 Mass=12.010735897 B-factor:0.000   
                 Charge=0.000000000  (-na-)  Polarization=1.760000000  [A^3] (considered a chargeless atom and no polarization)  Interactions: yes
                 Anisotropic factor:    0.000 [-] (Absolute), Radius:    0.750 [A], Framework-atom: yes (charge definition not found)
Pseudo Atom[  37] Name N15      Oxidation:          Element: N    pdb-name: N    Scat. Types:   8   7 Mass=14.006703212 B-factor:0.000   
                 Charge=0.000000000  (-na-)  Polarization=1.100000000  [A^3] (considered a chargeless atom and no polarization)  Interactions: yes
                 Anisotropic factor:    0.000 [-] (Absolute), Radius:    0.710 [A], Framework-atom: yes (charge definition not found)
Pseudo Atom[  38] Name C16      Oxidation:          Element: C    pdb-name: C    Scat. Types:   7   6 Mass=12.010735897 B-factor:0.000   
                 Charge=0.000000000  (-na-)  Polarization=1.760000000  [A^3] (considered a chargeless atom and no polarization)  Interactions: yes
                 Anisotropic factor:    0.000 [-] (Absolute), Radius:    0.750 [A], Framework-atom: yes (charge definition not found)
Pseudo Atom[  39] Name C17      Oxidation:          Element: C    pdb-name: C    Scat. Types:   7   6 Mass=12.010735897 B-factor:0.000   
                 Charge=0.000000000  (-na-)  Polarization=1.760000000  [A^3] (considered a chargeless atom and no polarization)  Interactions: yes
                 Anisotropic factor:    0.000 [-] (Absolute), Radius:    0.750 [A], Framework-atom: yes (charge definition not found)
Pseudo Atom[  40] Name C18      Oxidation:          Element: C    pdb-name: C    Scat. Types:   7   6 Mass=12.010735897 B-factor:0.000   
                 Charge=0.000000000  (-na-)  Polarization=1.760000000  [A^3] (considered a chargeless atom and no polarization)  Interactions: yes
                 Anisotropic factor:    0.000 [-] (Absolute), Radius:    0.750 [A], Framework-atom: yes (charge definition not found)
Pseudo Atom[  41] Name C19      Oxidation:          Element: C    pdb-name: C    Scat. Types:   7   6 Mass=12.010735897 B-factor:0.000   
                 Charge=0.000000000  (-na-)  Polarization=1.760000000  [A^3] (considered a chargeless atom and no polarization)  Interactions: yes
                 Anisotropic factor:    0.000 [-] (Absolute), Radius:    0.750 [A], Framework-atom: yes (charge definition not found)
Pseudo Atom[  42] Name C20      Oxidation:          Element: C    pdb-name: C    Scat. Types:   7   6 Mass=12.010735897 B-factor:0.000   
                 Charge=0.000000000  (-na-)  Polarization=1.760000000  [A^3] (considered a chargeless atom and no polarization)  Interactions: yes
                 Anisotropic factor:    0.000 [-] (Absolute), Radius:    0.750 [A], Framework-atom: yes (charge definition not found)
Pseudo Atom[  43] Name C21      Oxidation:          Element: C    pdb-name: C    Scat. Types:   7   6 Mass=12.010735897 B-factor:0.000   
                 Charge=0.000000000  (-na-)  Polarization=1.760000000  [A^3] (considered a chargeless atom and no polarization)  Interactions: yes
                 Anisotropic factor:    0.000 [-] (Absolute), Radius:    0.750 [A], Framework-atom: yes (charge definition not found)
Pseudo Atom[  44] Name C22      Oxidation:          Element: C    pdb-name: C    Scat. Types:   7   6 Mass=12.010735897 B-factor:0.000   
                 Charge=0.000000000  (-na-)  Polarization=1.760000000  [A^3] (considered a chargeless atom and no polarization)  Interactions: yes
                 Anisotropic factor:    0.000 [-] (Absolute), Radius:    0.750 [A], Framework-atom: yes (charge definition not found)
Pseudo Atom[  45] Name C23      Oxidation:          Element: C    pdb-name: C    Scat. Types:   7   6 Mass=12.010735897 B-factor:0.000   
                 Charge=0.000000000  (-na-)  Polarization=1.760000000  [A^3] (considered a chargeless atom and no polarization)  Interactions: yes
                 Anisotropic factor:    0.000 [-] (Absolute), Radius:    0.750 [A], Framework-atom: yes (charge definition not found)
Pseudo Atom[  46] Name C24      Oxidation:          Element: C    pdb-name: C    Scat. Types:   7   6 Mass=12.010735897 B-factor:0.000   
                 Charge=0.000000000  (-na-)  Polarization=1.760000000  [A^3] (considered a chargeless atom and no polarization)  Interactions: yes
                 Anisotropic factor:    0.000 [-] (Absolute), Radius:    0.750 [A], Framework-atom: yes (charge definition not found)
Pseudo Atom[  47] Name C25      Oxidation:          Element: C    pdb-name: C    Scat. Types:   7   6 Mass=12.010735897 B-factor:0.000   
                 Charge=0.000000000  (-na-)  Polarization=1.760000000  [A^3] (considered a chargeless atom and no polarization)  Interactions: yes
                 Anisotropic factor:    0.000 [-] (Absolute), Radius:    0.750 [A], Framework-atom: yes (charge definition not found)
Pseudo Atom[  48] Name C26      Oxidation:          Element: C    pdb-name: C    Scat. Types:   7   6 Mass=12.010735897 B-factor:0.000   
                 Charge=0.000000000  (-na-)  Polarization=1.760000000  [A^3] (considered a chargeless atom and no polarization)  Interactions: yes
                 Anisotropic factor:    0.000 [-] (Absolute), Radius:    0.750 [A], Framework-atom: yes (charge definition not found)
Pseudo Atom[  49] Name C27      Oxidation:          Element: C    pdb-name: C    Scat. Types:   7   6 Mass=12.010735897 B-factor:0.000   
                 Charge=0.000000000  (-na-)  Polarization=1.760000000  [A^3] (considered a chargeless atom and no polarization)  Interactions: yes
                 Anisotropic factor:    0.000 [-] (Absolute), Radius:    0.750 [A], Framework-atom: yes (charge definition not found)
Pseudo Atom[  50] Name N28      Oxidation:          Element: N    pdb-name: N    Scat. Types:   8   7 Mass=14.006703212 B-factor:0.000   
                 Charge=0.000000000  (-na-)  Polarization=1.100000000  [A^3] (considered a chargeless atom and no polarization)  Interactions: yes
                 Anisotropic factor:    0.000 [-] (Absolute), Radius:    0.710 [A], Framework-atom: yes (charge definition not found)
Pseudo Atom[  51] Name N29      Oxidation:          Element: N    pdb-name: N    Scat. Types:   8   7 Mass=14.006703212 B-factor:0.000   
                 Charge=0.000000000  (-na-)  Polarization=1.100000000  [A^3] (considered a chargeless atom and no polarization)  Interactions: yes
                 Anisotropic factor:    0.000 [-] (Absolute), Radius:    0.710 [A], Framework-atom: yes (charge definition not found)
Pseudo Atom[  52] Name N30      Oxidation:          Element: N    pdb-name: N    Scat. Types:   8   7 Mass=14.006703212 B-factor:0.000   
                 Charge=0.000000000  (-na-)  Polarization=1.100000000  [A^3] (considered a chargeless atom and no polarization)  Interactions: yes
                 Anisotropic factor:    0.000 [-] (Absolute), Radius:    0.710 [A], Framework-atom: yes (charge definition not found)
Pseudo Atom[  53] Name C31      Oxidation:          Element: C    pdb-name: C    Scat. Types:   7   6 Mass=12.010735897 B-factor:0.000   
                 Charge=0.000000000  (-na-)  Polarization=1.760000000  [A^3] (considered a chargeless atom and no polarization)  Interactions: yes
                 Anisotropic factor:    0.000 [-] (Absolute), Radius:    0.750 [A], Framework-atom: yes (charge definition not found)
Pseudo Atom[  54] Name C32      Oxidation:          Element: C    pdb-name: C    Scat. Types:   7   6 Mass=12.010735897 B-factor:0.000   
                 Charge=0.000000000  (-na-)  Polarization=1.760000000  [A^3] (considered a chargeless atom and no polarization)  Interactions: yes
                 Anisotropic factor:    0.000 [-] (Absolute), Radius:    0.750 [A], Framework-atom: yes (charge definition not found)
Pseudo Atom[  55] Name C33      Oxidation:          Element: C    pdb-name: C    Scat. Types:   7   6 Mass=12.010735897 B-factor:0.000   
                 Charge=0.000000000  (-na-)  Polarization=1.760000000  [A^3] (considered a chargeless atom and no polarization)  Interactions: yes
                 Anisotropic factor:    0.000 [-] (Absolute), Radius:    0.750 [A], Framework-atom: yes (charge definition not found)
Pseudo Atom[  56] Name H34      Oxidation:          Element: H    pdb-name: H    Scat. Types:   1   1 Mass=1.007940754  B-factor:0.000   
                 Charge=0.000000000  (-na-)  Polarization=0.666793000  [A^3] (considered a chargeless atom and no polarization)  Interactions: yes
                 Anisotropic factor:    0.000 [-] (Absolute), Radius:    0.320 [A], Framework-atom: yes (charge definition not found)
Pseudo Atom[  57] Name H35      Oxidation:          Element: H    pdb-name: H    Scat. Types:   1   1 Mass=1.007940754  B-factor:0.000   
                 Charge=0.000000000  (-na-)  Polarization=0.666793000  [A^3] (considered a chargeless atom and no polarization)  Interactions: yes
                 Anisotropic factor:    0.000 [-] (Absolute), Radius:    0.320 [A], Framework-atom: yes (charge definition not found)
Pseudo Atom[  58] Name H36      Oxidation:          Element: H    pdb-name: H    Scat. Types:   1   1 Mass=1.007940754  B-factor:0.000   
                 Charge=0.000000000  (-na-)  Polarization=0.666793000  [A^3] (considered a chargeless atom and no polarization)  Interactions: yes
                 Anisotropic factor:    0.000 [-] (Absolute), Radius:    0.320 [A], Framework-atom: yes (charge definition not found)
Pseudo Atom[  59] Name H37      Oxidation:          Element: H    pdb-name: H    Scat. Types:   1   1 Mass=1.007940754  B-factor:0.000   
                 Charge=0.000000000  (-na-)  Polarization=0.666793000  [A^3] (considered a chargeless atom and no polarization)  Interactions: yes
                 Anisotropic factor:    0.000 [-] (Absolute), Radius:    0.320 [A], Framework-atom: yes (charge definition not found)
Pseudo Atom[  60] Name H38      Oxidation:          Element: H    pdb-name: H    Scat. Types:   1   1 Mass=1.007940754  B-factor:0.000   
                 Charge=0.000000000  (-na-)  Polarization=0.666793000  [A^3] (considered a chargeless atom and no polarization)  Interactions: yes
                 Anisotropic factor:    0.000 [-] (Absolute), Radius:    0.320 [A], Framework-atom: yes (charge definition not found)
Pseudo Atom[  61] Name H39      Oxidation:          Element: H    pdb-name: H    Scat. Types:   1   1 Mass=1.007940754  B-factor:0.000   
                 Charge=0.000000000  (-na-)  Polarization=0.666793000  [A^3] (considered a chargeless atom and no polarization)  Interactions: yes
                 Anisotropic factor:    0.000 [-] (Absolute), Radius:    0.320 [A], Framework-atom: yes (charge definition not found)
Pseudo Atom[  62] Name H40      Oxidation:          Element: H    pdb-name: H    Scat. Types:   1   1 Mass=1.007940754  B-factor:0.000   
                 Charge=0.000000000  (-na-)  Polarization=0.666793000  [A^3] (considered a chargeless atom and no polarization)  Interactions: yes
                 Anisotropic factor:    0.000 [-] (Absolute), Radius:    0.320 [A], Framework-atom: yes (charge definition not found)
Pseudo Atom[  63] Name H41      Oxidation:          Element: H    pdb-name: H    Scat. Types:   1   1 Mass=1.007940754  B-factor:0.000   
                 Charge=0.000000000  (-na-)  Polarization=0.666793000  [A^3] (considered a chargeless atom and no polarization)  Interactions: yes
                 Anisotropic factor:    0.000 [-] (Absolute), Radius:    0.320 [A], Framework-atom: yes (charge definition not found)
Pseudo Atom[  64] Name H42      Oxidation:          Element: H    pdb-name: H    Scat. Types:   1   1 Mass=1.007940754  B-factor:0.000   
                 Charge=0.000000000  (-na-)  Polarization=0.666793000  [A^3] (considered a chargeless atom and no polarization)  Interactions: yes
                 Anisotropic factor:    0.000 [-] (Absolute), Radius:    0.320 [A], Framework-atom: yes (charge definition not found)
Pseudo Atom[  65] Name H43      Oxidation:          Element: H    pdb-name: H    Scat. Types:   1   1 Mass=1.007940754  B-factor:0.000   
                 Charge=0.000000000  (-na-)  Polarization=0.666793000  [A^3] (considered a chargeless atom and no polarization)  Interactions: yes
                 Anisotropic factor:    0.000 [-] (Absolute), Radius:    0.320 [A], Framework-atom: yes (charge definition not found)
Pseudo Atom[  66] Name H44      Oxidation:          Element: H    pdb-name: H    Scat. Types:   1   1 Mass=1.007940754  B-factor:0.000   
                 Charge=0.000000000  (-na-)  Polarization=0.666793000  [A^3] (considered a chargeless atom and no polarization)  Interactions: yes
                 Anisotropic factor:    0.000 [-] (Absolute), Radius:    0.320 [A], Framework-atom: yes (charge definition not found)
Pseudo Atom[  67] Name H45      Oxidation:          Element: H    pdb-name: H    Scat. Types:   1   1 Mass=1.007940754  B-factor:0.000   
                 Charge=0.000000000  (-na-)  Polarization=0.666793000  [A^3] (considered a chargeless atom and no polarization)  Interactions: yes
                 Anisotropic factor:    0.000 [-] (Absolute), Radius:    0.320 [A], Framework-atom: yes (charge definition not found)
Pseudo Atom[  68] Name H46      Oxidation:          Element: H    pdb-name: H    Scat. Types:   1   1 Mass=1.007940754  B-factor:0.000   
                 Charge=0.000000000  (-na-)  Polarization=0.666793000  [A^3] (considered a chargeless atom and no polarization)  Interactions: yes
                 Anisotropic factor:    0.000 [-] (Absolute), Radius:    0.320 [A], Framework-atom: yes (charge definition not found)
Pseudo Atom[  69] Name H47      Oxidation:          Element: H    pdb-name: H    Scat. Types:   1   1 Mass=1.007940754  B-factor:0.000   
                 Charge=0.000000000  (-na-)  Polarization=0.666793000  [A^3] (considered a chargeless atom and no polarization)  Interactions: yes
                 Anisotropic factor:    0.000 [-] (Absolute), Radius:    0.320 [A], Framework-atom: yes (charge definition not found)
Pseudo Atom[  70] Name H48      Oxidation:          Element: H    pdb-name: H    Scat. Types:   1   1 Mass=1.007940754  B-factor:0.000   
                 Charge=0.000000000  (-na-)  Polarization=0.666793000  [A^3] (considered a chargeless atom and no polarization)  Interactions: yes
                 Anisotropic factor:    0.000 [-] (Absolute), Radius:    0.320 [A], Framework-atom: yes (charge definition not found)


Forcefield: local
===========================================================================
Minimal distance: 1
CutOff VDW : 12.800000 (163.840000)
CutOff VDW switching on: 11.520000 (132.710400)
CutOff charge-charge : 12.000000 (144.000000)
CutOff charge-charge switching on: 7.800000 (60.840000)
CutOff charge-bonddipole : 12.000000 (144.000000)
CutOff charge-bondipole switching on: 8.400000 (70.560000)
CutOff bonddipole-bonddipole : 12.000000 (144.000000)
CutOff bonddipole-bondipole switching on: 9.000000 (81.000000)
Polarization is neglected
All potentials are unshifted !!!!!!

General mixing rule: Lorentz-Berthelot mixing rules are used FIRST for cross terms
0 cross terms are overwritten using the individual mixing rules from the file 'force_field_mixing_rules.def'
and then 0 terms are overwritten using the specific interactions from the file 'force_field.def'

The force field and all the interactions:
     Ar -      Ar [LENNARD_JONES] p_0/k_B: 119.80000 [K], p_1: 3.40000 [A], shift/k_B:   0.00000000 [K], tailcorrection: no
     Ar -      He [LENNARD_JONES] p_0/k_B:  36.13613 [K], p_1: 3.02000 [A], shift/k_B:   0.00000000 [K], tailcorrection: no
     Ar -    O_o2 [LENNARD_JONES] p_0/k_B:  76.61723 [K], p_1: 3.21000 [A], shift/k_B:   0.00000000 [K], tailcorrection: no
     Ar -   O_com [ZERO_POTENTIAL]
     Ar -    N_n2 [LENNARD_JONES] p_0/k_B:  65.67191 [K], p_1: 3.35500 [A], shift/k_B:   0.00000000 [K], tailcorrection: no
     Ar -   N_com [ZERO_POTENTIAL]
     Ar -    C_co [LENNARD_JONES] p_0/k_B:  43.97376 [K], p_1: 3.51800 [A], shift/k_B:   0.00000000 [K], tailcorrection: no
     Ar -    O_co [LENNARD_JONES] p_0/k_B: 108.36087 [K], p_1: 3.18950 [A], shift/k_B:   0.00000000 [K], tailcorrection: no
     Ar -  COM_co [ZERO_POTENTIAL]
     Ar -   C_co2 [LENNARD_JONES] p_0/k_B:  56.87354 [K], p_1: 3.10000 [A], shift/k_B:   0.00000000 [K], tailcorrection: no
     Ar -   O_co2 [LENNARD_JONES] p_0/k_B:  97.28412 [K], p_1: 3.22500 [A], shift/k_B:   0.00000000 [K], tailcorrection: no
     Ar -   N_nh3 [LENNARD_JONES] p_0/k_B: 148.87243 [K], p_1: 3.41000 [A], shift/k_B:   0.00000000 [K], tailcorrection: no
     Ar -   H_nh3 [ZERO_POTENTIAL]
     Ar -      Hw [LENNARD_JONES] p_0/k_B:  51.50235 [K], p_1: 2.98600 [A], shift/k_B:   0.00000000 [K], tailcorrection: no
     Ar -      Ow [LENNARD_JONES] p_0/k_B:  96.66644 [K], p_1: 3.27682 [A], shift/k_B:   0.00000000 [K], tailcorrection: no
     Ar - CH4_sp3 [LENNARD_JONES] p_0/k_B: 133.15555 [K], p_1: 3.56500 [A], shift/k_B:   0.00000000 [K], tailcorrection: no
     Ar - CH3_sp3 [LENNARD_JONES] p_0/k_B: 108.35313 [K], p_1: 3.57500 [A], shift/k_B:   0.00000000 [K], tailcorrection: no
     Ar - CH2_sp3 [LENNARD_JONES] p_0/k_B:  74.23476 [K], p_1: 3.67500 [A], shift/k_B:   0.00000000 [K], tailcorrection: no
     Ar -  CH_sp3 [LENNARD_JONES] p_0/k_B:  34.61214 [K], p_1: 4.04000 [A], shift/k_B:   0.00000000 [K], tailcorrection: no
     Ar -   C_sp3 [LENNARD_JONES] p_0/k_B:   7.73951 [K], p_1: 4.90000 [A], shift/k_B:   0.00000000 [K], tailcorrection: no
     Ar -      N1 [LENNARD_JONES_CONTINUOUS_FRACTIONAL] p_0/k_B:  64.49477 [K], p_1: 3.33050 [A], shift/k_B:   0.00000000 [K], tailcorrection: no
     Ar -      C2 [LENNARD_JONES_CONTINUOUS_FRACTIONAL] p_0/k_B:  79.55974 [K], p_1: 3.41550 [A], shift/k_B:   0.00000000 [K], tailcorrection: no
     Ar -      C3 [LENNARD_JONES_CONTINUOUS_FRACTIONAL] p_0/k_B:  79.55974 [K], p_1: 3.41550 [A], shift/k_B:   0.00000000 [K], tailcorrection: no
     Ar -      C4 [LENNARD_JONES_CONTINUOUS_FRACTIONAL] p_0/k_B:  79.55974 [K], p_1: 3.41550 [A], shift/k_B:   0.00000000 [K], tailcorrection: no
     Ar -      N5 [LENNARD_JONES_CONTINUOUS_FRACTIONAL] p_0/k_B:  64.49477 [K], p_1: 3.33050 [A], shift/k_B:   0.00000000 [K], tailcorrection: no
     Ar -      N6 [LENNARD_JONES_CONTINUOUS_FRACTIONAL] p_0/k_B:  64.49477 [K], p_1: 3.33050 [A], shift/k_B:   0.00000000 [K], tailcorrection: no
     Ar -      C7 [LENNARD_JONES_CONTINUOUS_FRACTIONAL] p_0/k_B:  79.55974 [K], p_1: 3.41550 [A], shift/k_B:   0.00000000 [K], tailcorrection: no
     Ar -      C8 [LENNARD_JONES_CONTINUOUS_FRACTIONAL] p_0/k_B:  79.55974 [K], p_1: 3.41550 [A], shift/k_B:   0.00000000 [K], tailcorrection: no
     Ar -      C9 [LENNARD_JONES_CONTINUOUS_FRACTIONAL] p_0/k_B:  79.55974 [K], p_1: 3.41550 [A], shift/k_B:   0.00000000 [K], tailcorrection: no
     Ar -     N10 [LENNARD_JONES_CONTINUOUS_FRACTIONAL] p_0/k_B:  64.49477 [K], p_1: 3.33050 [A], shift/k_B:   0.00000000 [K], tailcorrection: no
     Ar -     N11 [LENNARD_JONES_CONTINUOUS_FRACTIONAL] p_0/k_B:  64.49477 [K], p_1: 3.33050 [A], shift/k_B:   0.00000000 [K], tailcorrection: no
     Ar -     C12 [LENNARD_JONES_CONTINUOUS_FRACTIONAL] p_0/k_B:  79.55974 [K], p_1: 3.41550 [A], shift/k_B:   0.00000000 [K], tailcorrection: no
     Ar -     C13 [LENNARD_JONES_CONTINUOUS_FRACTIONAL] p_0/k_B:  79.55974 [K], p_1: 3.41550 [A], shift/k_B:   0.00000000 [K], tailcorrection: no
     Ar -     C14 [LENNARD_JONES_CONTINUOUS_FRACTIONAL] p_0/k_B:  79.55974 [K], p_1: 3.41550 [A], shift/k_B:   0.00000000 [K], tailcorrection: no
     Ar -     N15 [LENNARD_JONES_CONTINUOUS_FRACTIONAL] p_0/k_B:  64.49477 [K], p_1: 3.33050 [A], shift/k_B:   0.00000000 [K], tailcorrection: no
     Ar -     C16 [LENNARD_JONES_CONTINUOUS_FRACTIONAL] p_0/k_B:  79.55974 [K], p_1: 3.41550 [A], shift/k_B:   0.00000000 [K], tailcorrection: no
     Ar -     C17 [LENNARD_JONES_CONTINUOUS_FRACTIONAL] p_0/k_B:  79.55974 [K], p_1: 3.41550 [A], shift/k_B:   0.00000000 [K], tailcorrection: no
     Ar -     C18 [LENNARD_JONES_CONTINUOUS_FRACTIONAL] p_0/k_B:  79.55974 [K], p_1: 3.41550 [A], shift/k_B:   0.00000000 [K], tailcorrection: no
     Ar -     C19 [LENNARD_JONES_CONTINUOUS_FRACTIONAL] p_0/k_B:  79.55974 [K], p_1: 3.41550 [A], shift/k_B:   0.00000000 [K], tailcorrection: no
     Ar -     C20 [LENNARD_JONES_CONTINUOUS_FRACTIONAL] p_0/k_B:  79.55974 [K], p_1: 3.41550 [A], shift/k_B:   0.00000000 [K], tailcorrection: no
     Ar -     C21 [LENNARD_JONES_CONTINUOUS_FRACTIONAL] p_0/k_B:  79.55974 [K], p_1: 3.41550 [A], shift/k_B:   0.00000000 [K], tailcorrection: no
     Ar -     C22 [LENNARD_JONES_CONTINUOUS_FRACTIONAL] p_0/k_B:  79.55974 [K], p_1: 3.41550 [A], shift/k_B:   0.00000000 [K], tailcorrection: no
     Ar -     C23 [LENNARD_JONES_CONTINUOUS_FRACTIONAL] p_0/k_B:  79.55974 [K], p_1: 3.41550 [A], shift/k_B:   0.00000000 [K], tailcorrection: no
     Ar -     C24 [LENNARD_JONES_CONTINUOUS_FRACTIONAL] p_0/k_B:  79.55974 [K], p_1: 3.41550 [A], shift/k_B:   0.00000000 [K], tailcorrection: no
     Ar -     C25 [LENNARD_JONES_CONTINUOUS_FRACTIONAL] p_0/k_B:  79.55974 [K], p_1: 3.41550 [A], shift/k_B:   0.00000000 [K], tailcorrection: no
     Ar -     C26 [LENNARD_JONES_CONTINUOUS_FRACTIONAL] p_0/k_B:  79.55974 [K], p_1: 3.41550 [A], shift/k_B:   0.00000000 [K], tailcorrection: no
     Ar -     C27 [LENNARD_JONES_CONTINUOUS_FRACTIONAL] p_0/k_B:  79.55974 [K], p_1: 3.41550 [A], shift/k_B:   0.00000000 [K], tailcorrection: no
     Ar -     N28 [LENNARD_JONES_CONTINUOUS_FRACTIONAL] p_0/k_B:  64.49477 [K], p_1: 3.33050 [A], shift/k_B:   0.00000000 [K], tailcorrection: no
     Ar -     N29 [LENNARD_JONES_CONTINUOUS_FRACTIONAL] p_0/k_B:  64.49477 [K], p_1: 3.33050 [A], shift/k_B:   0.00000000 [K], tailcorrection: no
     Ar -     N30 [LENNARD_JONES_CONTINUOUS_FRACTIONAL] p_0/k_B:  64.49477 [K], p_1: 3.33050 [A], shift/k_B:   0.00000000 [K], tailcorrection: no
     Ar -     C31 [LENNARD_JONES_CONTINUOUS_FRACTIONAL] p_0/k_B:  79.55974 [K], p_1: 3.41550 [A], shift/k_B:   0.00000000 [K], tailcorrection: no
     Ar -     C32 [LENNARD_JONES_CONTINUOUS_FRACTIONAL] p_0/k_B:  79.55974 [K], p_1: 3.41550 [A], shift/k_B:   0.00000000 [K], tailcorrection: no
     Ar -     C33 [LENNARD_JONES_CONTINUOUS_FRACTIONAL] p_0/k_B:  79.55974 [K], p_1: 3.41550 [A], shift/k_B:   0.00000000 [K], tailcorrection: no
     Ar -     H34 [LENNARD_JONES_CONTINUOUS_FRACTIONAL] p_0/k_B:  51.50235 [K], p_1: 2.98600 [A], shift/k_B:   0.00000000 [K], tailcorrection: no
     Ar -     H35 [LENNARD_JONES_CONTINUOUS_FRACTIONAL] p_0/k_B:  51.50235 [K], p_1: 2.98600 [A], shift/k_B:   0.00000000 [K], tailcorrection: no
     Ar -     H36 [LENNARD_JONES_CONTINUOUS_FRACTIONAL] p_0/k_B:  51.50235 [K], p_1: 2.98600 [A], shift/k_B:   0.00000000 [K], tailcorrection: no
     Ar -     H37 [LENNARD_JONES_CONTINUOUS_FRACTIONAL] p_0/k_B:  51.50235 [K], p_1: 2.98600 [A], shift/k_B:   0.00000000 [K], tailcorrection: no
     Ar -     H38 [LENNARD_JONES_CONTINUOUS_FRACTIONAL] p_0/k_B:  51.50235 [K], p_1: 2.98600 [A], shift/k_B:   0.00000000 [K], tailcorrection: no
     Ar -     H39 [LENNARD_JONES_CONTINUOUS_FRACTIONAL] p_0/k_B:  51.50235 [K], p_1: 2.98600 [A], shift/k_B:   0.00000000 [K], tailcorrection: no
     Ar -     H40 [LENNARD_JONES_CONTINUOUS_FRACTIONAL] p_0/k_B:  51.50235 [K], p_1: 2.98600 [A], shift/k_B:   0.00000000 [K], tailcorrection: no
     Ar -     H41 [LENNARD_JONES_CONTINUOUS_FRACTIONAL] p_0/k_B:  51.50235 [K], p_1: 2.98600 [A], shift/k_B:   0.00000000 [K], tailcorrection: no
     Ar -     H42 [LENNARD_JONES_CONTINUOUS_FRACTIONAL] p_0/k_B:  51.50235 [K], p_1: 2.98600 [A], shift/k_B:   0.00000000 [K], tailcorrection: no
     Ar -     H43 [LENNARD_JONES_CONTINUOUS_FRACTIONAL] p_0/k_B:  51.50235 [K], p_1: 2.98600 [A], shift/k_B:   0.00000000 [K], tailcorrection: no
     Ar -     H44 [LENNARD_JONES_CONTINUOUS_FRACTIONAL] p_0/k_B:  51.50235 [K], p_1: 2.98600 [A], shift/k_B:   0.00000000 [K], tailcorrection: no
     Ar -     H45 [LENNARD_JONES_CONTINUOUS_FRACTIONAL] p_0/k_B:  51.50235 [K], p_1: 2.98600 [A], shift/k_B:   0.00000000 [K], tailcorrection: no
     Ar -     H46 [LENNARD_JONES_CONTINUOUS_FRACTIONAL] p_0/k_B:  51.50235 [K], p_1: 2.98600 [A], shift/k_B:   0.00000000 [K], tailcorrection: no
     Ar -     H47 [LENNARD_JONES_CONTINUOUS_FRACTIONAL] p_0/k_B:  51.50235 [K], p_1: 2.98600 [A], shift/k_B:   0.00000000 [K], tailcorrection: no
     Ar -     H48 [LENNARD_JONES_CONTINUOUS_FRACTIONAL] p_0/k_B:  51.50235 [K], p_1: 2.98600 [A], shift/k_B:   0.00000000 [K], tailcorrection: no
     He -      He [LENNARD_JONES] p_0/k_B:  10.90000 [K], p_1: 2.64000 [A], shift/k_B:   0.00000000 [K], tailcorrection: no
     He -    O_o2 [LENNARD_JONES] p_0/k_B:  23.11060 [K], p_1: 2.83000 [A], shift/k_B:   0.00000000 [K], tailcorrection: no
     He -   O_com [ZERO_POTENTIAL]
     He -    N_n2 [LENNARD_JONES] p_0/k_B:  19.80909 [K], p_1: 2.97500 [A], shift/k_B:   0.00000000 [K], tailcorrection: no
     He -   N_com [ZERO_POTENTIAL]
     He -    C_co [LENNARD_JONES] p_0/k_B:  13.26412 [K], p_1: 3.13800 [A], shift/k_B:   0.00000000 [K], tailcorrection: no
     He -    O_co [LENNARD_JONES] p_0/k_B:  32.68566 [K], p_1: 2.80950 [A], shift/k_B:   0.00000000 [K], tailcorrection: no
     He -  COM_co [ZERO_POTENTIAL]
     He -   C_co2 [LENNARD_JONES] p_0/k_B:  17.15517 [K], p_1: 2.72000 [A], shift/k_B:   0.00000000 [K], tailcorrection: no
     He -   O_co2 [LENNARD_JONES] p_0/k_B:  29.34451 [K], p_1: 2.84500 [A], shift/k_B:   0.00000000 [K], tailcorrection: no
     He -   N_nh3 [LENNARD_JONES] p_0/k_B:  44.90546 [K], p_1: 3.03000 [A], shift/k_B:   0.00000000 [K], tailcorrection: no
     He -   H_nh3 [ZERO_POTENTIAL]
     He -      Hw [LENNARD_JONES] p_0/k_B:  15.53502 [K], p_1: 2.60600 [A], shift/k_B:   0.00000000 [K], tailcorrection: no
     He -      Ow [LENNARD_JONES] p_0/k_B:  29.15819 [K], p_1: 2.89682 [A], shift/k_B:   0.00000000 [K], tailcorrection: no
     He - CH4_sp3 [LENNARD_JONES] p_0/k_B:  40.16466 [K], p_1: 3.18500 [A], shift/k_B:   0.00000000 [K], tailcorrection: no
     He - CH3_sp3 [LENNARD_JONES] p_0/k_B:  32.68333 [K], p_1: 3.19500 [A], shift/k_B:   0.00000000 [K], tailcorrection: no
     He - CH2_sp3 [LENNARD_JONES] p_0/k_B:  22.39196 [K], p_1: 3.29500 [A], shift/k_B:   0.00000000 [K], tailcorrection: no
     He -  CH_sp3 [LENNARD_JONES] p_0/k_B:  10.44031 [K], p_1: 3.66000 [A], shift/k_B:   0.00000000 [K], tailcorrection: no
     He -   C_sp3 [LENNARD_JONES] p_0/k_B:   2.33452 [K], p_1: 4.52000 [A], shift/k_B:   0.00000000 [K], tailcorrection: no
     He -      N1 [LENNARD_JONES_CONTINUOUS_FRACTIONAL] p_0/k_B:  19.45402 [K], p_1: 2.95050 [A], shift/k_B:   0.00000000 [K], tailcorrection: no
     He -      C2 [LENNARD_JONES_CONTINUOUS_FRACTIONAL] p_0/k_B:  23.99817 [K], p_1: 3.03550 [A], shift/k_B:   0.00000000 [K], tailcorrection: no
     He -      C3 [LENNARD_JONES_CONTINUOUS_FRACTIONAL] p_0/k_B:  23.99817 [K], p_1: 3.03550 [A], shift/k_B:   0.00000000 [K], tailcorrection: no
     He -      C4 [LENNARD_JONES_CONTINUOUS_FRACTIONAL] p_0/k_B:  23.99817 [K], p_1: 3.03550 [A], shift/k_B:   0.00000000 [K], tailcorrection: no
     He -      N5 [LENNARD_JONES_CONTINUOUS_FRACTIONAL] p_0/k_B:  19.45402 [K], p_1: 2.95050 [A], shift/k_B:   0.00000000 [K], tailcorrection: no
     He -      N6 [LENNARD_JONES_CONTINUOUS_FRACTIONAL] p_0/k_B:  19.45402 [K], p_1: 2.95050 [A], shift/k_B:   0.00000000 [K], tailcorrection: no
     He -      C7 [LENNARD_JONES_CONTINUOUS_FRACTIONAL] p_0/k_B:  23.99817 [K], p_1: 3.03550 [A], shift/k_B:   0.00000000 [K], tailcorrection: no
     He -      C8 [LENNARD_JONES_CONTINUOUS_FRACTIONAL] p_0/k_B:  23.99817 [K], p_1: 3.03550 [A], shift/k_B:   0.00000000 [K], tailcorrection: no
     He -      C9 [LENNARD_JONES_CONTINUOUS_FRACTIONAL] p_0/k_B:  23.99817 [K], p_1: 3.03550 [A], shift/k_B:   0.00000000 [K], tailcorrection: no
     He -     N10 [LENNARD_JONES_CONTINUOUS_FRACTIONAL] p_0/k_B:  19.45402 [K], p_1: 2.95050 [A], shift/k_B:   0.00000000 [K], tailcorrection: no
     He -     N11 [LENNARD_JONES_CONTINUOUS_FRACTIONAL] p_0/k_B:  19.45402 [K], p_1: 2.95050 [A], shift/k_B:   0.00000000 [K], tailcorrection: no
     He -     C12 [LENNARD_JONES_CONTINUOUS_FRACTIONAL] p_0/k_B:  23.99817 [K], p_1: 3.03550 [A], shift/k_B:   0.00000000 [K], tailcorrection: no
     He -     C13 [LENNARD_JONES_CONTINUOUS_FRACTIONAL] p_0/k_B:  23.99817 [K], p_1: 3.03550 [A], shift/k_B:   0.00000000 [K], tailcorrection: no
     He -     C14 [LENNARD_JONES_CONTINUOUS_FRACTIONAL] p_0/k_B:  23.99817 [K], p_1: 3.03550 [A], shift/k_B:   0.00000000 [K], tailcorrection: no
     He -     N15 [LENNARD_JONES_CONTINUOUS_FRACTIONAL] p_0/k_B:  19.45402 [K], p_1: 2.95050 [A], shift/k_B:   0.00000000 [K], tailcorrection: no
     He -     C16 [LENNARD_JONES_CONTINUOUS_FRACTIONAL] p_0/k_B:  23.99817 [K], p_1: 3.03550 [A], shift/k_B:   0.00000000 [K], tailcorrection: no
     He -     C17 [LENNARD_JONES_CONTINUOUS_FRACTIONAL] p_0/k_B:  23.99817 [K], p_1: 3.03550 [A], shift/k_B:   0.00000000 [K], tailcorrection: no
     He -     C18 [LENNARD_JONES_CONTINUOUS_FRACTIONAL] p_0/k_B:  23.99817 [K], p_1: 3.03550 [A], shift/k_B:   0.00000000 [K], tailcorrection: no
     He -     C19 [LENNARD_JONES_CONTINUOUS_FRACTIONAL] p_0/k_B:  23.99817 [K], p_1: 3.03550 [A], shift/k_B:   0.00000000 [K], tailcorrection: no
     He -     C20 [LENNARD_JONES_CONTINUOUS_FRACTIONAL] p_0/k_B:  23.99817 [K], p_1: 3.03550 [A], shift/k_B:   0.00000000 [K], tailcorrection: no
     He -     C21 [LENNARD_JONES_CONTINUOUS_FRACTIONAL] p_0/k_B:  23.99817 [K], p_1: 3.03550 [A], shift/k_B:   0.00000000 [K], tailcorrection: no
     He -     C22 [LENNARD_JONES_CONTINUOUS_FRACTIONAL] p_0/k_B:  23.99817 [K], p_1: 3.03550 [A], shift/k_B:   0.00000000 [K], tailcorrection: no
     He -     C23 [LENNARD_JONES_CONTINUOUS_FRACTIONAL] p_0/k_B:  23.99817 [K], p_1: 3.03550 [A], shift/k_B:   0.00000000 [K], tailcorrection: no
     He -     C24 [LENNARD_JONES_CONTINUOUS_FRACTIONAL] p_0/k_B:  23.99817 [K], p_1: 3.03550 [A], shift/k_B:   0.00000000 [K], tailcorrection: no
     He -     C25 [LENNARD_JONES_CONTINUOUS_FRACTIONAL] p_0/k_B:  23.99817 [K], p_1: 3.03550 [A], shift/k_B:   0.00000000 [K], tailcorrection: no
     He -     C26 [LENNARD_JONES_CONTINUOUS_FRACTIONAL] p_0/k_B:  23.99817 [K], p_1: 3.03550 [A], shift/k_B:   0.00000000 [K], tailcorrection: no
     He -     C27 [LENNARD_JONES_CONTINUOUS_FRACTIONAL] p_0/k_B:  23.99817 [K], p_1: 3.03550 [A], shift/k_B:   0.00000000 [K], tailcorrection: no
     He -     N28 [LENNARD_JONES_CONTINUOUS_FRACTIONAL] p_0/k_B:  19.45402 [K], p_1: 2.95050 [A], shift/k_B:   0.00000000 [K], tailcorrection: no
     He -     N29 [LENNARD_JONES_CONTINUOUS_FRACTIONAL] p_0/k_B:  19.45402 [K], p_1: 2.95050 [A], shift/k_B:   0.00000000 [K], tailcorrection: no
     He -     N30 [LENNARD_JONES_CONTINUOUS_FRACTIONAL] p_0/k_B:  19.45402 [K], p_1: 2.95050 [A], shift/k_B:   0.00000000 [K], tailcorrection: no
     He -     C31 [LENNARD_JONES_CONTINUOUS_FRACTIONAL] p_0/k_B:  23.99817 [K], p_1: 3.03550 [A], shift/k_B:   0.00000000 [K], tailcorrection: no
     He -     C32 [LENNARD_JONES_CONTINUOUS_FRACTIONAL] p_0/k_B:  23.99817 [K], p_1: 3.03550 [A], shift/k_B:   0.00000000 [K], tailcorrection: no
     He -     C33 [LENNARD_JONES_CONTINUOUS_FRACTIONAL] p_0/k_B:  23.99817 [K], p_1: 3.03550 [A], shift/k_B:   0.00000000 [K], tailcorrection: no
     He -     H34 [LENNARD_JONES_CONTINUOUS_FRACTIONAL] p_0/k_B:  15.53502 [K], p_1: 2.60600 [A], shift/k_B:   0.00000000 [K], tailcorrection: no
     He -     H35 [LENNARD_JONES_CONTINUOUS_FRACTIONAL] p_0/k_B:  15.53502 [K], p_1: 2.60600 [A], shift/k_B:   0.00000000 [K], tailcorrection: no
     He -     H36 [LENNARD_JONES_CONTINUOUS_FRACTIONAL] p_0/k_B:  15.53502 [K], p_1: 2.60600 [A], shift/k_B:   0.00000000 [K], tailcorrection: no
     He -     H37 [LENNARD_JONES_CONTINUOUS_FRACTIONAL] p_0/k_B:  15.53502 [K], p_1: 2.60600 [A], shift/k_B:   0.00000000 [K], tailcorrection: no
     He -     H38 [LENNARD_JONES_CONTINUOUS_FRACTIONAL] p_0/k_B:  15.53502 [K], p_1: 2.60600 [A], shift/k_B:   0.00000000 [K], tailcorrection: no
     He -     H39 [LENNARD_JONES_CONTINUOUS_FRACTIONAL] p_0/k_B:  15.53502 [K], p_1: 2.60600 [A], shift/k_B:   0.00000000 [K], tailcorrection: no
     He -     H40 [LENNARD_JONES_CONTINUOUS_FRACTIONAL] p_0/k_B:  15.53502 [K], p_1: 2.60600 [A], shift/k_B:   0.00000000 [K], tailcorrection: no
     He -     H41 [LENNARD_JONES_CONTINUOUS_FRACTIONAL] p_0/k_B:  15.53502 [K], p_1: 2.60600 [A], shift/k_B:   0.00000000 [K], tailcorrection: no
     He -     H42 [LENNARD_JONES_CONTINUOUS_FRACTIONAL] p_0/k_B:  15.53502 [K], p_1: 2.60600 [A], shift/k_B:   0.00000000 [K], tailcorrection: no
     He -     H43 [LENNARD_JONES_CONTINUOUS_FRACTIONAL] p_0/k_B:  15.53502 [K], p_1: 2.60600 [A], shift/k_B:   0.00000000 [K], tailcorrection: no
     He -     H44 [LENNARD_JONES_CONTINUOUS_FRACTIONAL] p_0/k_B:  15.53502 [K], p_1: 2.60600 [A], shift/k_B:   0.00000000 [K], tailcorrection: no
     He -     H45 [LENNARD_JONES_CONTINUOUS_FRACTIONAL] p_0/k_B:  15.53502 [K], p_1: 2.60600 [A], shift/k_B:   0.00000000 [K], tailcorrection: no
     He -     H46 [LENNARD_JONES_CONTINUOUS_FRACTIONAL] p_0/k_B:  15.53502 [K], p_1: 2.60600 [A], shift/k_B:   0.00000000 [K], tailcorrection: no
     He -     H47 [LENNARD_JONES_CONTINUOUS_FRACTIONAL] p_0/k_B:  15.53502 [K], p_1: 2.60600 [A], shift/k_B:   0.00000000 [K], tailcorrection: no
     He -     H48 [LENNARD_JONES_CONTINUOUS_FRACTIONAL] p_0/k_B:  15.53502 [K], p_1: 2.60600 [A], shift/k_B:   0.00000000 [K], tailcorrection: no
   O_o2 -    O_o2 [LENNARD_JONES] p_0/k_B:  49.00000 [K], p_1: 3.02000 [A], shift/k_B:   0.00000000 [K], tailcorrection: no
   O_o2 -   O_com [ZERO_POTENTIAL]
   O_o2 -    N_n2 [LENNARD_JONES] p_0/k_B:  42.00000 [K], p_1: 3.16500 [A], shift/k_B:   0.00000000 [K], tailcorrection: no
   O_o2 -   N_com [ZERO_POTENTIAL]
   O_o2 -    C_co [LENNARD_JONES] p_0/k_B:  28.12310 [K], p_1: 3.32800 [A], shift/k_B:   0.00000000 [K], tailcorrection: no
   O_o2 -    O_co [LENNARD_JONES] p_0/k_B:  69.30141 [K], p_1: 2.99950 [A], shift/k_B:   0.00000000 [K], tailcorrection: no
   O_o2 -  COM_co [ZERO_POTENTIAL]
   O_o2 -   C_co2 [LENNARD_JONES] p_0/k_B:  36.37307 [K], p_1: 2.91000 [A], shift/k_B:   0.00000000 [K], tailcorrection: no
   O_o2 -   O_co2 [LENNARD_JONES] p_0/k_B:  62.21736 [K], p_1: 3.03500 [A], shift/k_B:   0.00000000 [K], tailcorrection: no
   O_o2 -   N_nh3 [LENNARD_JONES] p_0/k_B:  95.21029 [K], p_1: 3.22000 [A], shift/k_B:   0.00000000 [K], tailcorrection: no
   O_o2 -   H_nh3 [ZERO_POTENTIAL]
   O_o2 -      Hw [LENNARD_JONES] p_0/k_B:  32.93796 [K], p_1: 2.79600 [A], shift/k_B:   0.00000000 [K], tailcorrection: no
   O_o2 -      Ow [LENNARD_JONES] p_0/k_B:  61.82233 [K], p_1: 3.08683 [A], shift/k_B:   0.00000000 [K], tailcorrection: no
   O_o2 - CH4_sp3 [LENNARD_JONES] p_0/k_B:  85.15868 [K], p_1: 3.37500 [A], shift/k_B:   0.00000000 [K], tailcorrection: no
   O_o2 - CH3_sp3 [LENNARD_JONES] p_0/k_B:  69.29646 [K], p_1: 3.38500 [A], shift/k_B:   0.00000000 [K], tailcorrection: no
   O_o2 - CH2_sp3 [LENNARD_JONES] p_0/k_B:  47.47631 [K], p_1: 3.48500 [A], shift/k_B:   0.00000000 [K], tailcorrection: no
   O_o2 -  CH_sp3 [LENNARD_JONES] p_0/k_B:  22.13594 [K], p_1: 3.85000 [A], shift/k_B:   0.00000000 [K], tailcorrection: no
   O_o2 -   C_sp3 [LENNARD_JONES] p_0/k_B:   4.94975 [K], p_1: 4.71000 [A], shift/k_B:   0.00000000 [K], tailcorrection: no
   O_o2 -      N1 [LENNARD_JONES_CONTINUOUS_FRACTIONAL] p_0/k_B:  41.24717 [K], p_1: 3.14050 [A], shift/k_B:   0.00000000 [K], tailcorrection: no
   O_o2 -      C2 [LENNARD_JONES_CONTINUOUS_FRACTIONAL] p_0/k_B:  50.88186 [K], p_1: 3.22550 [A], shift/k_B:   0.00000000 [K], tailcorrection: no
   O_o2 -      C3 [LENNARD_JONES_CONTINUOUS_FRACTIONAL] p_0/k_B:  50.88186 [K], p_1: 3.22550 [A], shift/k_B:   0.00000000 [K], tailcorrection: no
   O_o2 -      C4 [LENNARD_JONES_CONTINUOUS_FRACTIONAL] p_0/k_B:  50.88186 [K], p_1: 3.22550 [A], shift/k_B:   0.00000000 [K], tailcorrection: no
   O_o2 -      N5 [LENNARD_JONES_CONTINUOUS_FRACTIONAL] p_0/k_B:  41.24717 [K], p_1: 3.14050 [A], shift/k_B:   0.00000000 [K], tailcorrection: no
   O_o2 -      N6 [LENNARD_JONES_CONTINUOUS_FRACTIONAL] p_0/k_B:  41.24717 [K], p_1: 3.14050 [A], shift/k_B:   0.00000000 [K], tailcorrection: no
   O_o2 -      C7 [LENNARD_JONES_CONTINUOUS_FRACTIONAL] p_0/k_B:  50.88186 [K], p_1: 3.22550 [A], shift/k_B:   0.00000000 [K], tailcorrection: no
   O_o2 -      C8 [LENNARD_JONES_CONTINUOUS_FRACTIONAL] p_0/k_B:  50.88186 [K], p_1: 3.22550 [A], shift/k_B:   0.00000000 [K], tailcorrection: no
   O_o2 -      C9 [LENNARD_JONES_CONTINUOUS_FRACTIONAL] p_0/k_B:  50.88186 [K], p_1: 3.22550 [A], shift/k_B:   0.00000000 [K], tailcorrection: no
   O_o2 -     N10 [LENNARD_JONES_CONTINUOUS_FRACTIONAL] p_0/k_B:  41.24717 [K], p_1: 3.14050 [A], shift/k_B:   0.00000000 [K], tailcorrection: no
   O_o2 -     N11 [LENNARD_JONES_CONTINUOUS_FRACTIONAL] p_0/k_B:  41.24717 [K], p_1: 3.14050 [A], shift/k_B:   0.00000000 [K], tailcorrection: no
   O_o2 -     C12 [LENNARD_JONES_CONTINUOUS_FRACTIONAL] p_0/k_B:  50.88186 [K], p_1: 3.22550 [A], shift/k_B:   0.00000000 [K], tailcorrection: no
   O_o2 -     C13 [LENNARD_JONES_CONTINUOUS_FRACTIONAL] p_0/k_B:  50.88186 [K], p_1: 3.22550 [A], shift/k_B:   0.00000000 [K], tailcorrection: no
   O_o2 -     C14 [LENNARD_JONES_CONTINUOUS_FRACTIONAL] p_0/k_B:  50.88186 [K], p_1: 3.22550 [A], shift/k_B:   0.00000000 [K], tailcorrection: no
   O_o2 -     N15 [LENNARD_JONES_CONTINUOUS_FRACTIONAL] p_0/k_B:  41.24717 [K], p_1: 3.14050 [A], shift/k_B:   0.00000000 [K], tailcorrection: no
   O_o2 -     C16 [LENNARD_JONES_CONTINUOUS_FRACTIONAL] p_0/k_B:  50.88186 [K], p_1: 3.22550 [A], shift/k_B:   0.00000000 [K], tailcorrection: no
   O_o2 -     C17 [LENNARD_JONES_CONTINUOUS_FRACTIONAL] p_0/k_B:  50.88186 [K], p_1: 3.22550 [A], shift/k_B:   0.00000000 [K], tailcorrection: no
   O_o2 -     C18 [LENNARD_JONES_CONTINUOUS_FRACTIONAL] p_0/k_B:  50.88186 [K], p_1: 3.22550 [A], shift/k_B:   0.00000000 [K], tailcorrection: no
   O_o2 -     C19 [LENNARD_JONES_CONTINUOUS_FRACTIONAL] p_0/k_B:  50.88186 [K], p_1: 3.22550 [A], shift/k_B:   0.00000000 [K], tailcorrection: no
   O_o2 -     C20 [LENNARD_JONES_CONTINUOUS_FRACTIONAL] p_0/k_B:  50.88186 [K], p_1: 3.22550 [A], shift/k_B:   0.00000000 [K], tailcorrection: no
   O_o2 -     C21 [LENNARD_JONES_CONTINUOUS_FRACTIONAL] p_0/k_B:  50.88186 [K], p_1: 3.22550 [A], shift/k_B:   0.00000000 [K], tailcorrection: no
   O_o2 -     C22 [LENNARD_JONES_CONTINUOUS_FRACTIONAL] p_0/k_B:  50.88186 [K], p_1: 3.22550 [A], shift/k_B:   0.00000000 [K], tailcorrection: no
   O_o2 -     C23 [LENNARD_JONES_CONTINUOUS_FRACTIONAL] p_0/k_B:  50.88186 [K], p_1: 3.22550 [A], shift/k_B:   0.00000000 [K], tailcorrection: no
   O_o2 -     C24 [LENNARD_JONES_CONTINUOUS_FRACTIONAL] p_0/k_B:  50.88186 [K], p_1: 3.22550 [A], shift/k_B:   0.00000000 [K], tailcorrection: no
   O_o2 -     C25 [LENNARD_JONES_CONTINUOUS_FRACTIONAL] p_0/k_B:  50.88186 [K], p_1: 3.22550 [A], shift/k_B:   0.00000000 [K], tailcorrection: no
   O_o2 -     C26 [LENNARD_JONES_CONTINUOUS_FRACTIONAL] p_0/k_B:  50.88186 [K], p_1: 3.22550 [A], shift/k_B:   0.00000000 [K], tailcorrection: no
   O_o2 -     C27 [LENNARD_JONES_CONTINUOUS_FRACTIONAL] p_0/k_B:  50.88186 [K], p_1: 3.22550 [A], shift/k_B:   0.00000000 [K], tailcorrection: no
   O_o2 -     N28 [LENNARD_JONES_CONTINUOUS_FRACTIONAL] p_0/k_B:  41.24717 [K], p_1: 3.14050 [A], shift/k_B:   0.00000000 [K], tailcorrection: no
   O_o2 -     N29 [LENNARD_JONES_CONTINUOUS_FRACTIONAL] p_0/k_B:  41.24717 [K], p_1: 3.14050 [A], shift/k_B:   0.00000000 [K], tailcorrection: no
   O_o2 -     N30 [LENNARD_JONES_CONTINUOUS_FRACTIONAL] p_0/k_B:  41.24717 [K], p_1: 3.14050 [A], shift/k_B:   0.00000000 [K], tailcorrection: no
   O_o2 -     C31 [LENNARD_JONES_CONTINUOUS_FRACTIONAL] p_0/k_B:  50.88186 [K], p_1: 3.22550 [A], shift/k_B:   0.00000000 [K], tailcorrection: no
   O_o2 -     C32 [LENNARD_JONES_CONTINUOUS_FRACTIONAL] p_0/k_B:  50.88186 [K], p_1: 3.22550 [A], shift/k_B:   0.00000000 [K], tailcorrection: no
   O_o2 -     C33 [LENNARD_JONES_CONTINUOUS_FRACTIONAL] p_0/k_B:  50.88186 [K], p_1: 3.22550 [A], shift/k_B:   0.00000000 [K], tailcorrection: no
   O_o2 -     H34 [LENNARD_JONES_CONTINUOUS_FRACTIONAL] p_0/k_B:  32.93796 [K], p_1: 2.79600 [A], shift/k_B:   0.00000000 [K], tailcorrection: no
   O_o2 -     H35 [LENNARD_JONES_CONTINUOUS_FRACTIONAL] p_0/k_B:  32.93796 [K], p_1: 2.79600 [A], shift/k_B:   0.00000000 [K], tailcorrection: no
   O_o2 -     H36 [LENNARD_JONES_CONTINUOUS_FRACTIONAL] p_0/k_B:  32.93796 [K], p_1: 2.79600 [A], shift/k_B:   0.00000000 [K], tailcorrection: no
   O_o2 -     H37 [LENNARD_JONES_CONTINUOUS_FRACTIONAL] p_0/k_B:  32.93796 [K], p_1: 2.79600 [A], shift/k_B:   0.00000000 [K], tailcorrection: no
   O_o2 -     H38 [LENNARD_JONES_CONTINUOUS_FRACTIONAL] p_0/k_B:  32.93796 [K], p_1: 2.79600 [A], shift/k_B:   0.00000000 [K], tailcorrection: no
   O_o2 -     H39 [LENNARD_JONES_CONTINUOUS_FRACTIONAL] p_0/k_B:  32.93796 [K], p_1: 2.79600 [A], shift/k_B:   0.00000000 [K], tailcorrection: no
   O_o2 -     H40 [LENNARD_JONES_CONTINUOUS_FRACTIONAL] p_0/k_B:  32.93796 [K], p_1: 2.79600 [A], shift/k_B:   0.00000000 [K], tailcorrection: no
   O_o2 -     H41 [LENNARD_JONES_CONTINUOUS_FRACTIONAL] p_0/k_B:  32.93796 [K], p_1: 2.79600 [A], shift/k_B:   0.00000000 [K], tailcorrection: no
   O_o2 -     H42 [LENNARD_JONES_CONTINUOUS_FRACTIONAL] p_0/k_B:  32.93796 [K], p_1: 2.79600 [A], shift/k_B:   0.00000000 [K], tailcorrection: no
   O_o2 -     H43 [LENNARD_JONES_CONTINUOUS_FRACTIONAL] p_0/k_B:  32.93796 [K], p_1: 2.79600 [A], shift/k_B:   0.00000000 [K], tailcorrection: no
   O_o2 -     H44 [LENNARD_JONES_CONTINUOUS_FRACTIONAL] p_0/k_B:  32.93796 [K], p_1: 2.79600 [A], shift/k_B:   0.00000000 [K], tailcorrection: no
   O_o2 -     H45 [LENNARD_JONES_CONTINUOUS_FRACTIONAL] p_0/k_B:  32.93796 [K], p_1: 2.79600 [A], shift/k_B:   0.00000000 [K], tailcorrection: no
   O_o2 -     H46 [LENNARD_JONES_CONTINUOUS_FRACTIONAL] p_0/k_B:  32.93796 [K], p_1: 2.79600 [A], shift/k_B:   0.00000000 [K], tailcorrection: no
   O_o2 -     H47 [LENNARD_JONES_CONTINUOUS_FRACTIONAL] p_0/k_B:  32.93796 [K], p_1: 2.79600 [A], shift/k_B:   0.00000000 [K], tailcorrection: no
   O_o2 -     H48 [LENNARD_JONES_CONTINUOUS_FRACTIONAL] p_0/k_B:  32.93796 [K], p_1: 2.79600 [A], shift/k_B:   0.00000000 [K], tailcorrection: no
  O_com -   O_com [ZERO_POTENTIAL]
  O_com -    N_n2 [ZERO_POTENTIAL]
  O_com -   N_com [ZERO_POTENTIAL]
  O_com -    C_co [ZERO_POTENTIAL]
  O_com -    O_co [ZERO_POTENTIAL]
  O_com -  COM_co [ZERO_POTENTIAL]
  O_com -   C_co2 [ZERO_POTENTIAL]
  O_com -   O_co2 [ZERO_POTENTIAL]
  O_com -   N_nh3 [ZERO_POTENTIAL]
  O_com -   H_nh3 [ZERO_POTENTIAL]
  O_com -   M_nh3 [ZERO_POTENTIAL]
  O_com -      Hw [ZERO_POTENTIAL]
  O_com -      Ow [ZERO_POTENTIAL]
  O_com -       M [ZERO_POTENTIAL]
  O_com - CH4_sp3 [ZERO_POTENTIAL]
  O_com - CH3_sp3 [ZERO_POTENTIAL]
  O_com - CH2_sp3 [ZERO_POTENTIAL]
  O_com -  CH_sp3 [ZERO_POTENTIAL]
  O_com -   C_sp3 [ZERO_POTENTIAL]
  O_com -      N1 [ZERO_POTENTIAL_CONTINUOUS_FRACTIONAL]
  O_com -      C2 [ZERO_POTENTIAL_CONTINUOUS_FRACTIONAL]
  O_com -      C3 [ZERO_POTENTIAL_CONTINUOUS_FRACTIONAL]
  O_com -      C4 [ZERO_POTENTIAL_CONTINUOUS_FRACTIONAL]
  O_com -      N5 [ZERO_POTENTIAL_CONTINUOUS_FRACTIONAL]
  O_com -      N6 [ZERO_POTENTIAL_CONTINUOUS_FRACTIONAL]
  O_com -      C7 [ZERO_POTENTIAL_CONTINUOUS_FRACTIONAL]
  O_com -      C8 [ZERO_POTENTIAL_CONTINUOUS_FRACTIONAL]
  O_com -      C9 [ZERO_POTENTIAL_CONTINUOUS_FRACTIONAL]
  O_com -     N10 [ZERO_POTENTIAL_CONTINUOUS_FRACTIONAL]
  O_com -     N11 [ZERO_POTENTIAL_CONTINUOUS_FRACTIONAL]
  O_com -     C12 [ZERO_POTENTIAL_CONTINUOUS_FRACTIONAL]
  O_com -     C13 [ZERO_POTENTIAL_CONTINUOUS_FRACTIONAL]
  O_com -     C14 [ZERO_POTENTIAL_CONTINUOUS_FRACTIONAL]
  O_com -     N15 [ZERO_POTENTIAL_CONTINUOUS_FRACTIONAL]
  O_com -     C16 [ZERO_POTENTIAL_CONTINUOUS_FRACTIONAL]
  O_com -     C17 [ZERO_POTENTIAL_CONTINUOUS_FRACTIONAL]
  O_com -     C18 [ZERO_POTENTIAL_CONTINUOUS_FRACTIONAL]
  O_com -     C19 [ZERO_POTENTIAL_CONTINUOUS_FRACTIONAL]
  O_com -     C20 [ZERO_POTENTIAL_CONTINUOUS_FRACTIONAL]
  O_com -     C21 [ZERO_POTENTIAL_CONTINUOUS_FRACTIONAL]
  O_com -     C22 [ZERO_POTENTIAL_CONTINUOUS_FRACTIONAL]
  O_com -     C23 [ZERO_POTENTIAL_CONTINUOUS_FRACTIONAL]
  O_com -     C24 [ZERO_POTENTIAL_CONTINUOUS_FRACTIONAL]
  O_com -     C25 [ZERO_POTENTIAL_CONTINUOUS_FRACTIONAL]
  O_com -     C26 [ZERO_POTENTIAL_CONTINUOUS_FRACTIONAL]
  O_com -     C27 [ZERO_POTENTIAL_CONTINUOUS_FRACTIONAL]
  O_com -     N28 [ZERO_POTENTIAL_CONTINUOUS_FRACTIONAL]
  O_com -     N29 [ZERO_POTENTIAL_CONTINUOUS_FRACTIONAL]
  O_com -     N30 [ZERO_POTENTIAL_CONTINUOUS_FRACTIONAL]
  O_com -     C31 [ZERO_POTENTIAL_CONTINUOUS_FRACTIONAL]
  O_com -     C32 [ZERO_POTENTIAL_CONTINUOUS_FRACTIONAL]
  O_com -     C33 [ZERO_POTENTIAL_CONTINUOUS_FRACTIONAL]
  O_com -     H34 [ZERO_POTENTIAL_CONTINUOUS_FRACTIONAL]
  O_com -     H35 [ZERO_POTENTIAL_CONTINUOUS_FRACTIONAL]
  O_com -     H36 [ZERO_POTENTIAL_CONTINUOUS_FRACTIONAL]
  O_com -     H37 [ZERO_POTENTIAL_CONTINUOUS_FRACTIONAL]
  O_com -     H38 [ZERO_POTENTIAL_CONTINUOUS_FRACTIONAL]
  O_com -     H39 [ZERO_POTENTIAL_CONTINUOUS_FRACTIONAL]
  O_com -     H40 [ZERO_POTENTIAL_CONTINUOUS_FRACTIONAL]
  O_com -     H41 [ZERO_POTENTIAL_CONTINUOUS_FRACTIONAL]
  O_com -     H42 [ZERO_POTENTIAL_CONTINUOUS_FRACTIONAL]
  O_com -     H43 [ZERO_POTENTIAL_CONTINUOUS_FRACTIONAL]
  O_com -     H44 [ZERO_POTENTIAL_CONTINUOUS_FRACTIONAL]
  O_com -     H45 [ZERO_POTENTIAL_CONTINUOUS_FRACTIONAL]
  O_com -     H46 [ZERO_POTENTIAL_CONTINUOUS_FRACTIONAL]
  O_com -     H47 [ZERO_POTENTIAL_CONTINUOUS_FRACTIONAL]
  O_com -     H48 [ZERO_POTENTIAL_CONTINUOUS_FRACTIONAL]
   N_n2 -    N_n2 [LENNARD_JONES] p_0/k_B:  36.00000 [K], p_1: 3.31000 [A], shift/k_B:   0.00000000 [K], tailcorrection: no
   N_n2 -   N_com [ZERO_POTENTIAL]
   N_n2 -    C_co [LENNARD_JONES] p_0/k_B:  24.10552 [K], p_1: 3.47300 [A], shift/k_B:   0.00000000 [K], tailcorrection: no
   N_n2 -    O_co [LENNARD_JONES] p_0/k_B:  59.40121 [K], p_1: 3.14450 [A], shift/k_B:   0.00000000 [K], tailcorrection: no
   N_n2 -  COM_co [ZERO_POTENTIAL]
   N_n2 -   C_co2 [LENNARD_JONES] p_0/k_B:  31.17691 [K], p_1: 3.05500 [A], shift/k_B:   0.00000000 [K], tailcorrection: no
   N_n2 -   O_co2 [LENNARD_JONES] p_0/k_B:  53.32917 [K], p_1: 3.18000 [A], shift/k_B:   0.00000000 [K], tailcorrection: no
   N_n2 -   N_nh3 [LENNARD_JONES] p_0/k_B:  81.60882 [K], p_1: 3.36500 [A], shift/k_B:   0.00000000 [K], tailcorrection: no
   N_n2 -   H_nh3 [ZERO_POTENTIAL]
   N_n2 -      Hw [LENNARD_JONES] p_0/k_B:  28.23253 [K], p_1: 2.94100 [A], shift/k_B:   0.00000000 [K], tailcorrection: no
   N_n2 -      Ow [LENNARD_JONES] p_0/k_B:  52.99057 [K], p_1: 3.23182 [A], shift/k_B:   0.00000000 [K], tailcorrection: no
   N_n2 - CH4_sp3 [LENNARD_JONES] p_0/k_B:  72.99315 [K], p_1: 3.52000 [A], shift/k_B:   0.00000000 [K], tailcorrection: no
   N_n2 - CH3_sp3 [LENNARD_JONES] p_0/k_B:  59.39697 [K], p_1: 3.53000 [A], shift/k_B:   0.00000000 [K], tailcorrection: no
   N_n2 - CH2_sp3 [LENNARD_JONES] p_0/k_B:  40.69398 [K], p_1: 3.63000 [A], shift/k_B:   0.00000000 [K], tailcorrection: no
   N_n2 -  CH_sp3 [LENNARD_JONES] p_0/k_B:  18.97367 [K], p_1: 3.99500 [A], shift/k_B:   0.00000000 [K], tailcorrection: no
   N_n2 -   C_sp3 [LENNARD_JONES] p_0/k_B:   4.24264 [K], p_1: 4.85500 [A], shift/k_B:   0.00000000 [K], tailcorrection: no
   N_n2 -      N1 [LENNARD_JONES_CONTINUOUS_FRACTIONAL] p_0/k_B:  35.35472 [K], p_1: 3.28550 [A], shift/k_B:   0.00000000 [K], tailcorrection: no
   N_n2 -      C2 [LENNARD_JONES_CONTINUOUS_FRACTIONAL] p_0/k_B:  43.61303 [K], p_1: 3.37050 [A], shift/k_B:   0.00000000 [K], tailcorrection: no
   N_n2 -      C3 [LENNARD_JONES_CONTINUOUS_FRACTIONAL] p_0/k_B:  43.61303 [K], p_1: 3.37050 [A], shift/k_B:   0.00000000 [K], tailcorrection: no
   N_n2 -      C4 [LENNARD_JONES_CONTINUOUS_FRACTIONAL] p_0/k_B:  43.61303 [K], p_1: 3.37050 [A], shift/k_B:   0.00000000 [K], tailcorrection: no
   N_n2 -      N5 [LENNARD_JONES_CONTINUOUS_FRACTIONAL] p_0/k_B:  35.35472 [K], p_1: 3.28550 [A], shift/k_B:   0.00000000 [K], tailcorrection: no
   N_n2 -      N6 [LENNARD_JONES_CONTINUOUS_FRACTIONAL] p_0/k_B:  35.35472 [K], p_1: 3.28550 [A], shift/k_B:   0.00000000 [K], tailcorrection: no
   N_n2 -      C7 [LENNARD_JONES_CONTINUOUS_FRACTIONAL] p_0/k_B:  43.61303 [K], p_1: 3.37050 [A], shift/k_B:   0.00000000 [K], tailcorrection: no
   N_n2 -      C8 [LENNARD_JONES_CONTINUOUS_FRACTIONAL] p_0/k_B:  43.61303 [K], p_1: 3.37050 [A], shift/k_B:   0.00000000 [K], tailcorrection: no
   N_n2 -      C9 [LENNARD_JONES_CONTINUOUS_FRACTIONAL] p_0/k_B:  43.61303 [K], p_1: 3.37050 [A], shift/k_B:   0.00000000 [K], tailcorrection: no
   N_n2 -     N10 [LENNARD_JONES_CONTINUOUS_FRACTIONAL] p_0/k_B:  35.35472 [K], p_1: 3.28550 [A], shift/k_B:   0.00000000 [K], tailcorrection: no
   N_n2 -     N11 [LENNARD_JONES_CONTINUOUS_FRACTIONAL] p_0/k_B:  35.35472 [K], p_1: 3.28550 [A], shift/k_B:   0.00000000 [K], tailcorrection: no
   N_n2 -     C12 [LENNARD_JONES_CONTINUOUS_FRACTIONAL] p_0/k_B:  43.61303 [K], p_1: 3.37050 [A], shift/k_B:   0.00000000 [K], tailcorrection: no
   N_n2 -     C13 [LENNARD_JONES_CONTINUOUS_FRACTIONAL] p_0/k_B:  43.61303 [K], p_1: 3.37050 [A], shift/k_B:   0.00000000 [K], tailcorrection: no
   N_n2 -     C14 [LENNARD_JONES_CONTINUOUS_FRACTIONAL] p_0/k_B:  43.61303 [K], p_1: 3.37050 [A], shift/k_B:   0.00000000 [K], tailcorrection: no
   N_n2 -     N15 [LENNARD_JONES_CONTINUOUS_FRACTIONAL] p_0/k_B:  35.35472 [K], p_1: 3.28550 [A], shift/k_B:   0.00000000 [K], tailcorrection: no
   N_n2 -     C16 [LENNARD_JONES_CONTINUOUS_FRACTIONAL] p_0/k_B:  43.61303 [K], p_1: 3.37050 [A], shift/k_B:   0.00000000 [K], tailcorrection: no
   N_n2 -     C17 [LENNARD_JONES_CONTINUOUS_FRACTIONAL] p_0/k_B:  43.61303 [K], p_1: 3.37050 [A], shift/k_B:   0.00000000 [K], tailcorrection: no
   N_n2 -     C18 [LENNARD_JONES_CONTINUOUS_FRACTIONAL] p_0/k_B:  43.61303 [K], p_1: 3.37050 [A], shift/k_B:   0.00000000 [K], tailcorrection: no
   N_n2 -     C19 [LENNARD_JONES_CONTINUOUS_FRACTIONAL] p_0/k_B:  43.61303 [K], p_1: 3.37050 [A], shift/k_B:   0.00000000 [K], tailcorrection: no
   N_n2 -     C20 [LENNARD_JONES_CONTINUOUS_FRACTIONAL] p_0/k_B:  43.61303 [K], p_1: 3.37050 [A], shift/k_B:   0.00000000 [K], tailcorrection: no
   N_n2 -     C21 [LENNARD_JONES_CONTINUOUS_FRACTIONAL] p_0/k_B:  43.61303 [K], p_1: 3.37050 [A], shift/k_B:   0.00000000 [K], tailcorrection: no
   N_n2 -     C22 [LENNARD_JONES_CONTINUOUS_FRACTIONAL] p_0/k_B:  43.61303 [K], p_1: 3.37050 [A], shift/k_B:   0.00000000 [K], tailcorrection: no
   N_n2 -     C23 [LENNARD_JONES_CONTINUOUS_FRACTIONAL] p_0/k_B:  43.61303 [K], p_1: 3.37050 [A], shift/k_B:   0.00000000 [K], tailcorrection: no
   N_n2 -     C24 [LENNARD_JONES_CONTINUOUS_FRACTIONAL] p_0/k_B:  43.61303 [K], p_1: 3.37050 [A], shift/k_B:   0.00000000 [K], tailcorrection: no
   N_n2 -     C25 [LENNARD_JONES_CONTINUOUS_FRACTIONAL] p_0/k_B:  43.61303 [K], p_1: 3.37050 [A], shift/k_B:   0.00000000 [K], tailcorrection: no
   N_n2 -     C26 [LENNARD_JONES_CONTINUOUS_FRACTIONAL] p_0/k_B:  43.61303 [K], p_1: 3.37050 [A], shift/k_B:   0.00000000 [K], tailcorrection: no
   N_n2 -     C27 [LENNARD_JONES_CONTINUOUS_FRACTIONAL] p_0/k_B:  43.61303 [K], p_1: 3.37050 [A], shift/k_B:   0.00000000 [K], tailcorrection: no
   N_n2 -     N28 [LENNARD_JONES_CONTINUOUS_FRACTIONAL] p_0/k_B:  35.35472 [K], p_1: 3.28550 [A], shift/k_B:   0.00000000 [K], tailcorrection: no
   N_n2 -     N29 [LENNARD_JONES_CONTINUOUS_FRACTIONAL] p_0/k_B:  35.35472 [K], p_1: 3.28550 [A], shift/k_B:   0.00000000 [K], tailcorrection: no
   N_n2 -     N30 [LENNARD_JONES_CONTINUOUS_FRACTIONAL] p_0/k_B:  35.35472 [K], p_1: 3.28550 [A], shift/k_B:   0.00000000 [K], tailcorrection: no
   N_n2 -     C31 [LENNARD_JONES_CONTINUOUS_FRACTIONAL] p_0/k_B:  43.61303 [K], p_1: 3.37050 [A], shift/k_B:   0.00000000 [K], tailcorrection: no
   N_n2 -     C32 [LENNARD_JONES_CONTINUOUS_FRACTIONAL] p_0/k_B:  43.61303 [K], p_1: 3.37050 [A], shift/k_B:   0.00000000 [K], tailcorrection: no
   N_n2 -     C33 [LENNARD_JONES_CONTINUOUS_FRACTIONAL] p_0/k_B:  43.61303 [K], p_1: 3.37050 [A], shift/k_B:   0.00000000 [K], tailcorrection: no
   N_n2 -     H34 [LENNARD_JONES_CONTINUOUS_FRACTIONAL] p_0/k_B:  28.23253 [K], p_1: 2.94100 [A], shift/k_B:   0.00000000 [K], tailcorrection: no
   N_n2 -     H35 [LENNARD_JONES_CONTINUOUS_FRACTIONAL] p_0/k_B:  28.23253 [K], p_1: 2.94100 [A], shift/k_B:   0.00000000 [K], tailcorrection: no
   N_n2 -     H36 [LENNARD_JONES_CONTINUOUS_FRACTIONAL] p_0/k_B:  28.23253 [K], p_1: 2.94100 [A], shift/k_B:   0.00000000 [K], tailcorrection: no
   N_n2 -     H37 [LENNARD_JONES_CONTINUOUS_FRACTIONAL] p_0/k_B:  28.23253 [K], p_1: 2.94100 [A], shift/k_B:   0.00000000 [K], tailcorrection: no
   N_n2 -     H38 [LENNARD_JONES_CONTINUOUS_FRACTIONAL] p_0/k_B:  28.23253 [K], p_1: 2.94100 [A], shift/k_B:   0.00000000 [K], tailcorrection: no
   N_n2 -     H39 [LENNARD_JONES_CONTINUOUS_FRACTIONAL] p_0/k_B:  28.23253 [K], p_1: 2.94100 [A], shift/k_B:   0.00000000 [K], tailcorrection: no
   N_n2 -     H40 [LENNARD_JONES_CONTINUOUS_FRACTIONAL] p_0/k_B:  28.23253 [K], p_1: 2.94100 [A], shift/k_B:   0.00000000 [K], tailcorrection: no
   N_n2 -     H41 [LENNARD_JONES_CONTINUOUS_FRACTIONAL] p_0/k_B:  28.23253 [K], p_1: 2.94100 [A], shift/k_B:   0.00000000 [K], tailcorrection: no
   N_n2 -     H42 [LENNARD_JONES_CONTINUOUS_FRACTIONAL] p_0/k_B:  28.23253 [K], p_1: 2.94100 [A], shift/k_B:   0.00000000 [K], tailcorrection: no
   N_n2 -     H43 [LENNARD_JONES_CONTINUOUS_FRACTIONAL] p_0/k_B:  28.23253 [K], p_1: 2.94100 [A], shift/k_B:   0.00000000 [K], tailcorrection: no
   N_n2 -     H44 [LENNARD_JONES_CONTINUOUS_FRACTIONAL] p_0/k_B:  28.23253 [K], p_1: 2.94100 [A], shift/k_B:   0.00000000 [K], tailcorrection: no
   N_n2 -     H45 [LENNARD_JONES_CONTINUOUS_FRACTIONAL] p_0/k_B:  28.23253 [K], p_1: 2.94100 [A], shift/k_B:   0.00000000 [K], tailcorrection: no
   N_n2 -     H46 [LENNARD_JONES_CONTINUOUS_FRACTIONAL] p_0/k_B:  28.23253 [K], p_1: 2.94100 [A], shift/k_B:   0.00000000 [K], tailcorrection: no
   N_n2 -     H47 [LENNARD_JONES_CONTINUOUS_FRACTIONAL] p_0/k_B:  28.23253 [K], p_1: 2.94100 [A], shift/k_B:   0.00000000 [K], tailcorrection: no
   N_n2 -     H48 [LENNARD_JONES_CONTINUOUS_FRACTIONAL] p_0/k_B:  28.23253 [K], p_1: 2.94100 [A], shift/k_B:   0.00000000 [K], tailcorrection: no
  N_com -   N_com [ZERO_POTENTIAL]
  N_com -    C_co [ZERO_POTENTIAL]
  N_com -    O_co [ZERO_POTENTIAL]
  N_com -  COM_co [ZERO_POTENTIAL]
  N_com -   C_co2 [ZERO_POTENTIAL]
  N_com -   O_co2 [ZERO_POTENTIAL]
  N_com -   N_nh3 [ZERO_POTENTIAL]
  N_com -   H_nh3 [ZERO_POTENTIAL]
  N_com -   M_nh3 [ZERO_POTENTIAL]
  N_com -      Hw [ZERO_POTENTIAL]
  N_com -      Ow [ZERO_POTENTIAL]
  N_com -       M [ZERO_POTENTIAL]
  N_com - CH4_sp3 [ZERO_POTENTIAL]
  N_com - CH3_sp3 [ZERO_POTENTIAL]
  N_com - CH2_sp3 [ZERO_POTENTIAL]
  N_com -  CH_sp3 [ZERO_POTENTIAL]
  N_com -   C_sp3 [ZERO_POTENTIAL]
  N_com -      N1 [ZERO_POTENTIAL_CONTINUOUS_FRACTIONAL]
  N_com -      C2 [ZERO_POTENTIAL_CONTINUOUS_FRACTIONAL]
  N_com -      C3 [ZERO_POTENTIAL_CONTINUOUS_FRACTIONAL]
  N_com -      C4 [ZERO_POTENTIAL_CONTINUOUS_FRACTIONAL]
  N_com -      N5 [ZERO_POTENTIAL_CONTINUOUS_FRACTIONAL]
  N_com -      N6 [ZERO_POTENTIAL_CONTINUOUS_FRACTIONAL]
  N_com -      C7 [ZERO_POTENTIAL_CONTINUOUS_FRACTIONAL]
  N_com -      C8 [ZERO_POTENTIAL_CONTINUOUS_FRACTIONAL]
  N_com -      C9 [ZERO_POTENTIAL_CONTINUOUS_FRACTIONAL]
  N_com -     N10 [ZERO_POTENTIAL_CONTINUOUS_FRACTIONAL]
  N_com -     N11 [ZERO_POTENTIAL_CONTINUOUS_FRACTIONAL]
  N_com -     C12 [ZERO_POTENTIAL_CONTINUOUS_FRACTIONAL]
  N_com -     C13 [ZERO_POTENTIAL_CONTINUOUS_FRACTIONAL]
  N_com -     C14 [ZERO_POTENTIAL_CONTINUOUS_FRACTIONAL]
  N_com -     N15 [ZERO_POTENTIAL_CONTINUOUS_FRACTIONAL]
  N_com -     C16 [ZERO_POTENTIAL_CONTINUOUS_FRACTIONAL]
  N_com -     C17 [ZERO_POTENTIAL_CONTINUOUS_FRACTIONAL]
  N_com -     C18 [ZERO_POTENTIAL_CONTINUOUS_FRACTIONAL]
  N_com -     C19 [ZERO_POTENTIAL_CONTINUOUS_FRACTIONAL]
[...]
	Block[ 0]            0.00000 [K]
	Block[ 1]            0.00000 [K]
	Block[ 2]            0.00000 [K]
	Block[ 3]            0.00000 [K]
	Block[ 4]            0.00000 [K]
	------------------------------------------------------------------------------
	Average              0.00000 [K] +/-            0.00000 [K]

Average Cation Improper Torsion energy:
=======================================
	Block[ 0]            0.00000 [K]
	Block[ 1]            0.00000 [K]
	Block[ 2]            0.00000 [K]
	Block[ 3]            0.00000 [K]
	Block[ 4]            0.00000 [K]
	------------------------------------------------------------------------------
	Average              0.00000 [K] +/-            0.00000 [K]

Average Cation Bond-Bond cross term energy:
=================================================
	Block[ 0]            0.00000 [K]
	Block[ 1]            0.00000 [K]
	Block[ 2]            0.00000 [K]
	Block[ 3]            0.00000 [K]
	Block[ 4]            0.00000 [K]
	------------------------------------------------------------------------------
	Average              0.00000 [K] +/-            0.00000 [K]

Average Cation Bend-Bend cross term energy:
===========================================
	Block[ 0]            0.00000 [K]
	Block[ 1]            0.00000 [K]
	Block[ 2]            0.00000 [K]
	Block[ 3]            0.00000 [K]
	Block[ 4]            0.00000 [K]
	------------------------------------------------------------------------------
	Average              0.00000 [K] +/-            0.00000 [K]

Average Cation Bond-Bend cross term energy:
==============================================
	Block[ 0]            0.00000 [K]
	Block[ 1]            0.00000 [K]
	Block[ 2]            0.00000 [K]
	Block[ 3]            0.00000 [K]
	Block[ 4]            0.00000 [K]
	------------------------------------------------------------------------------
	Average              0.00000 [K] +/-            0.00000 [K]

Average Cation Bond-Torsion cross term energy:
==============================================
	Block[ 0]            0.00000 [K]
	Block[ 1]            0.00000 [K]
	Block[ 2]            0.00000 [K]
	Block[ 3]            0.00000 [K]
	Block[ 4]            0.00000 [K]
	------------------------------------------------------------------------------
	Average              0.00000 [K] +/-            0.00000 [K]

Average Cation Bend-Torsion cross term energy:
==============================================
	Block[ 0]            0.00000 [K]
	Block[ 1]            0.00000 [K]
	Block[ 2]            0.00000 [K]
	Block[ 3]            0.00000 [K]
	Block[ 4]            0.00000 [K]
	------------------------------------------------------------------------------
	Average              0.00000 [K] +/-            0.00000 [K]

Average Cation Intra Van der Waals energy:
==========================================
	Block[ 0]            0.00000 [K]
	Block[ 1]            0.00000 [K]
	Block[ 2]            0.00000 [K]
	Block[ 3]            0.00000 [K]
	Block[ 4]            0.00000 [K]
	------------------------------------------------------------------------------
	Average              0.00000 [K] +/-            0.00000 [K]

Average Cation Intra charge-charge Coulomb energy:
====================================
	Block[ 0]            0.00000 [K]
	Block[ 1]            0.00000 [K]
	Block[ 2]            0.00000 [K]
	Block[ 3]            0.00000 [K]
	Block[ 4]            0.00000 [K]
	------------------------------------------------------------------------------
	Average              0.00000 [K] +/-            0.00000 [K]

Average Cation Intra charge-bonddipole Coulomb energy:
====================================
	Block[ 0]            0.00000 [K]
	Block[ 1]            0.00000 [K]
	Block[ 2]            0.00000 [K]
	Block[ 3]            0.00000 [K]
	Block[ 4]            0.00000 [K]
	------------------------------------------------------------------------------
	Average              0.00000 [K] +/-            0.00000 [K]

Average Cation Intra bonddipole-bonddipole Coulomb energy:
====================================
	Block[ 0]            0.00000 [K]
	Block[ 1]            0.00000 [K]
	Block[ 2]            0.00000 [K]
	Block[ 3]            0.00000 [K]
	Block[ 4]            0.00000 [K]
	------------------------------------------------------------------------------
	Average              0.00000 [K] +/-            0.00000 [K]

Average Host-Host energy:
=========================
	Block[ 0] 0.00000            Van der Waals: 0.00000            Coulomb: 0.00000            [K]
	Block[ 1] 0.00000            Van der Waals: 0.00000            Coulomb: 0.00000            [K]
	Block[ 2] 0.00000            Van der Waals: 0.00000            Coulomb: 0.00000            [K]
	Block[ 3] 0.00000            Van der Waals: 0.00000            Coulomb: 0.00000            [K]
	Block[ 4] 0.00000            Van der Waals: 0.00000            Coulomb: 0.00000            [K]
	------------------------------------------------------------------------------
	Average   0.00000            Van der Waals: 0.000000           Coulomb: 0.00000            [K]
	      +/- 0.00000                       +/- 0.000000                +/- 0.00000            [K]

Average Adsorbate-Adsorbate energy:
===================================
	Block[ 0] 0.00000            Van der Waals: 0.00000            Coulomb: 0.00000            [K]
	Block[ 1] 0.00000            Van der Waals: 0.00000            Coulomb: 0.00000            [K]
	Block[ 2] 0.00000            Van der Waals: 0.00000            Coulomb: 0.00000            [K]
	Block[ 3] 0.00000            Van der Waals: 0.00000            Coulomb: 0.00000            [K]
	Block[ 4] 0.00000            Van der Waals: 0.00000            Coulomb: 0.00000            [K]
	------------------------------------------------------------------------------
	Average   0.00000            Van der Waals: 0.000000           Coulomb: 0.00000            [K]
	      +/- 0.00000                       +/- 0.000000                +/- 0.00000            [K]

Average Cation-Cation energy:
=============================
	Block[ 0] 0.00000            Van der Waals: 0.00000            Coulomb: 0.00000            [K]
	Block[ 1] 0.00000            Van der Waals: 0.00000            Coulomb: 0.00000            [K]
	Block[ 2] 0.00000            Van der Waals: 0.00000            Coulomb: 0.00000            [K]
	Block[ 3] 0.00000            Van der Waals: 0.00000            Coulomb: 0.00000            [K]
	Block[ 4] 0.00000            Van der Waals: 0.00000            Coulomb: 0.00000            [K]
	------------------------------------------------------------------------------
	Average   0.00000            Van der Waals: 0.000000           Coulomb: 0.00000            [K]
	      +/- 0.00000                       +/- 0.000000                +/- 0.00000            [K]

Average Host-Adsorbate energy:
==============================
	Block[ 0] 0.00000            Van der Waals: 0.00000            Coulomb: 0.00000            [K]
	Block[ 1] 0.00000            Van der Waals: 0.00000            Coulomb: 0.00000            [K]
	Block[ 2] 0.00000            Van der Waals: 0.00000            Coulomb: 0.00000            [K]
	Block[ 3] 0.00000            Van der Waals: 0.00000            Coulomb: 0.00000            [K]
	Block[ 4] 0.00000            Van der Waals: 0.00000            Coulomb: 0.00000            [K]
	------------------------------------------------------------------------------
	Average   0.00000            Van der Waals: 0.000000           Coulomb: 0.00000            [K]
	      +/- 0.00000                       +/- 0.000000                +/- 0.00000            [K]

Average Host-Cation energy:
===========================
	Block[ 0] 0.00000            Van der Waals: 0.00000            Coulomb: 0.00000            [K]
	Block[ 1] 0.00000            Van der Waals: 0.00000            Coulomb: 0.00000            [K]
	Block[ 2] 0.00000            Van der Waals: 0.00000            Coulomb: 0.00000            [K]
	Block[ 3] 0.00000            Van der Waals: 0.00000            Coulomb: 0.00000            [K]
	Block[ 4] 0.00000            Van der Waals: 0.00000            Coulomb: 0.00000            [K]
	------------------------------------------------------------------------------
	Average   0.00000            Van der Waals: 0.000000           Coulomb: 0.00000            [K]
	      +/- 0.00000                       +/- 0.000000                +/- 0.00000            [K]

Average Adsorbate-Cation energy:
================================
	Block[ 0] 0.00000            Van der Waals: 0.00000            Coulomb: 0.00000            [K]
	Block[ 1] 0.00000            Van der Waals: 0.00000            Coulomb: 0.00000            [K]
	Block[ 2] 0.00000            Van der Waals: 0.00000            Coulomb: 0.00000            [K]
	Block[ 3] 0.00000            Van der Waals: 0.00000            Coulomb: 0.00000            [K]
	Block[ 4] 0.00000            Van der Waals: 0.00000            Coulomb: 0.00000            [K]
	------------------------------------------------------------------------------
	Average   0.00000            Van der Waals: 0.000000           Coulomb: 0.00000            [K]
	      +/- 0.00000                       +/- 0.000000                +/- 0.00000            [K]

Host polarization energy:
=======================
	Block[ 0]            0.00000 [K]
	Block[ 1]            0.00000 [K]
	Block[ 2]            0.00000 [K]
	Block[ 3]            0.00000 [K]
	Block[ 4]            0.00000 [K]
	------------------------------------------------------------------------------
	Average              0.00000 [K] +/-            0.00000 [K]

Adsorbate polarization energy:
=======================
	Block[ 0]            0.00000 [K]
	Block[ 1]            0.00000 [K]
	Block[ 2]            0.00000 [K]
	Block[ 3]            0.00000 [K]
	Block[ 4]            0.00000 [K]
	------------------------------------------------------------------------------
	Average              0.00000 [K] +/-            0.00000 [K]

Cation polarization energy:
=======================
	Block[ 0]            0.00000 [K]
	Block[ 1]            0.00000 [K]
	Block[ 2]            0.00000 [K]
	Block[ 3]            0.00000 [K]
	Block[ 4]            0.00000 [K]
	------------------------------------------------------------------------------
	Average              0.00000 [K] +/-            0.00000 [K]

Host back-polarization energy:
=======================
	Block[ 0]            0.00000 [K]
	Block[ 1]            0.00000 [K]
	Block[ 2]            0.00000 [K]
	Block[ 3]            0.00000 [K]
	Block[ 4]            0.00000 [K]
	------------------------------------------------------------------------------
	Average              0.00000 [K] +/-            0.00000 [K]

Adsorbate back-polarization energy:
=======================
	Block[ 0]            0.00000 [K]
	Block[ 1]            0.00000 [K]
	Block[ 2]            0.00000 [K]
	Block[ 3]            0.00000 [K]
	Block[ 4]            0.00000 [K]
	------------------------------------------------------------------------------
	Average              0.00000 [K] +/-            0.00000 [K]

Cation back-polarization energy:
=======================
	Block[ 0]            0.00000 [K]
	Block[ 1]            0.00000 [K]
	Block[ 2]            0.00000 [K]
	Block[ 3]            0.00000 [K]
	Block[ 4]            0.00000 [K]
	------------------------------------------------------------------------------
	Average              0.00000 [K] +/-            0.00000 [K]

Tail-correction energy:
=======================
	Block[ 0]            0.00000 [K]
	Block[ 1]            0.00000 [K]
	Block[ 2]            0.00000 [K]
	Block[ 3]            0.00000 [K]
	Block[ 4]            0.00000 [K]
	------------------------------------------------------------------------------
	Average              0.00000 [K] +/-            0.00000 [K]

Distance-constraints energy:
=======================
	Block[ 0]            0.00000 [K]
	Block[ 1]            0.00000 [K]
	Block[ 2]            0.00000 [K]
	Block[ 3]            0.00000 [K]
	Block[ 4]            0.00000 [K]
	------------------------------------------------------------------------------
	Average              0.00000 [K] +/-            0.00000 [K]

Angle-constraints energy:
=======================
	Block[ 0]            0.00000 [K]
	Block[ 1]            0.00000 [K]
	Block[ 2]            0.00000 [K]
	Block[ 3]            0.00000 [K]
	Block[ 4]            0.00000 [K]
	------------------------------------------------------------------------------
	Average              0.00000 [K] +/-            0.00000 [K]

Dihedral-constraints energy:
=======================
	Block[ 0]            0.00000 [K]
	Block[ 1]            0.00000 [K]
	Block[ 2]            0.00000 [K]
	Block[ 3]            0.00000 [K]
	Block[ 4]            0.00000 [K]
	------------------------------------------------------------------------------
	Average              0.00000 [K] +/-            0.00000 [K]

Inversion-bend constraints energy:
=======================
	Block[ 0]            0.00000 [K]
	Block[ 1]            0.00000 [K]
	Block[ 2]            0.00000 [K]
	Block[ 3]            0.00000 [K]
	Block[ 4]            0.00000 [K]
	------------------------------------------------------------------------------
	Average              0.00000 [K] +/-            0.00000 [K]

Out-of-plane-distance constraints energy:
=======================
	Block[ 0]            0.00000 [K]
	Block[ 1]            0.00000 [K]
	Block[ 2]            0.00000 [K]
	Block[ 3]            0.00000 [K]
	Block[ 4]            0.00000 [K]
	------------------------------------------------------------------------------
	Average              0.00000 [K] +/-            0.00000 [K]

Exclusion-constraints energy:
=======================
	Block[ 0]            0.00000 [K]
	Block[ 1]            0.00000 [K]
	Block[ 2]            0.00000 [K]
	Block[ 3]            0.00000 [K]
	Block[ 4]            0.00000 [K]
	------------------------------------------------------------------------------
	Average              0.00000 [K] +/-            0.00000 [K]

Total energy:
=============
	Block[ 0]            0.00000 [K]
	Block[ 1]            0.00000 [K]
	Block[ 2]            0.00000 [K]
	Block[ 3]            0.00000 [K]
	Block[ 4]            0.00000 [K]
	------------------------------------------------------------------------------
	Average              0.00000 [K] +/-            0.00000 [K]

Number of molecules:
====================

Component 0 [helium]
-------------------------------------------------------------
	Block[ 0] 0.00000            [-]
	Block[ 1] 0.00000            [-]
	Block[ 2] 0.00000            [-]
	Block[ 3] 0.00000            [-]
	Block[ 4] 0.00000            [-]
	------------------------------------------------------------------------------
	Average loading absolute                              0.0000000000 +/-       0.0000000000 [-]
	Average loading absolute [molecules/unit cell]        0.0000000000 +/-       0.0000000000 [-]
	Average loading absolute [mol/kg framework]                  0.0000000000 +/-       0.0000000000 [-]
	Average loading absolute [milligram/gram framework]          0.0000000000 +/-       0.0000000000 [-]
	Average loading absolute [cm^3 (STP)/gr framework]           0.0000000000 +/-       0.0000000000 [-]
	Average loading absolute [cm^3 (STP)/cm^3 framework]         0.0000000000 +/-       0.0000000000 [-]

	Block[ 0] 0.00000            [-]
	Block[ 1] 0.00000            [-]
	Block[ 2] 0.00000            [-]
	Block[ 3] 0.00000            [-]
	Block[ 4] 0.00000            [-]
	------------------------------------------------------------------------------
	Average loading excess                              0.0000000000 +/-       0.0000000000 [-]
	Average loading excess [molecules/unit cell]        0.0000000000 +/-       0.0000000000 [-]
	Average loading excess [mol/kg framework]                    0.0000000000 +/-       0.0000000000 [-]
	Average loading excess [milligram/gram framework]            0.0000000000 +/-       0.0000000000 [-]
	Average loading excess [cm^3 (STP)/gr framework]             0.0000000000 +/-       0.0000000000 [-]
	Average loading excess [cm^3 (STP)/cm^3 framework]           0.0000000000 +/-       0.0000000000 [-]


Average Widom Rosenbluth factor:
================================
	Block[ 0] 0.823629 [-]
	Block[ 1] 0.82034 [-]
	Block[ 2] 0.819311 [-]
	Block[ 3] 0.822099 [-]
	Block[ 4] 0.820414 [-]
	------------------------------------------------------------------------------
	[helium] Average Widom Rosenbluth-weight:   0.821159 +/- 0.002117 [-]

Average Widom chemical potential:
=================================
	Block[ 0] -2915.55 [-]
	Block[ 1] -2914.36 [-]
	Block[ 2] -2913.99 [-]
	Block[ 3] -2915 [-]
	Block[ 4] -2914.39 [-]
	------------------------------------------------------------------------------
	[helium] Average chemical potential:   -2914.66 +/- 0.767784 [K]

Average Widom Ideal-gas contribution:
=====================================
	Block[ 0] -2973.38 [-]
	Block[ 1] -2973.38 [-]
	Block[ 2] -2973.38 [-]
	Block[ 3] -2973.38 [-]
	Block[ 4] -2973.38 [-]
	------------------------------------------------------------------------------
	[helium] Average Widom Ideal-gas chemical potential:   -2973.38 +/- 0.000000 [-]

Average Widom excess contribution:
==================================
	Block[ 0] 57.8224 [-]
	Block[ 1] 59.015 [-]
	Block[ 2] 59.389 [-]
	Block[ 3] 58.3766 [-]
	Block[ 4] 58.988 [-]
	------------------------------------------------------------------------------
	[helium] Average Widom excess chemical potential:   58.7182 +/- 0.767784 [-]

Average Gibbs Widom Rosenbluth factor:
======================================
	Block[ 0] 0 [-]
	Block[ 1] 0 [-]
	Block[ 2] 0 [-]
	Block[ 3] 0 [-]
	Block[ 4] 0 [-]
	------------------------------------------------------------------------------
	[helium] Average Gibbs Widom Rosenbluth-weight:   0 +/- 0.000000 [-]

Average Gibbs Widom chemical potential:
=======================================
	Block[ 0] 0 [-]
	Block[ 1] 0 [-]
	Block[ 2] 0 [-]
	Block[ 3] 0 [-]
	Block[ 4] 0 [-]
	------------------------------------------------------------------------------
	[helium] Average Gibbs chemical potential:   0 +/- 0.000000 [K]

Average Gibbs Widom Ideal-gas contribution:
===========================================
	Block[ 0] 0 [-]
	Block[ 1] 0 [-]
	Block[ 2] 0 [-]
	Block[ 3] 0 [-]
	Block[ 4] 0 [-]
	------------------------------------------------------------------------------
	[helium] Average Gibbs Ideal-gas chemical potential:   0 +/- 0.000000 [-]

Average Gibbs Widom excess contribution:
===========================================
	Block[ 0] 0 [-]
	Block[ 1] 0 [-]
	Block[ 2] 0 [-]
	Block[ 3] 0 [-]
	Block[ 4] 0 [-]
	------------------------------------------------------------------------------
	[helium] Average Gibbs excess chemical potential:   0 +/- 0.000000 [-]

Average Henry coefficient:
==========================
	Block[ 0] 8.36834e-07 [mol/kg/Pa]
	Block[ 1] 8.33492e-07 [mol/kg/Pa]
	Block[ 2] 8.32446e-07 [mol/kg/Pa]
	Block[ 3] 8.35279e-07 [mol/kg/Pa]
	Block[ 4] 8.33567e-07 [mol/kg/Pa]
	------------------------------------------------------------------------------
	[helium] Average Henry coefficient:  8.34324e-07 +/- 2.15057e-09 [mol/kg/Pa]

Average adsorption energy <U_gh>_1-<U_h>_0 obtained from Widom-insertion:
(Note: the total heat of adsorption is dH=<U_gh>_1-<U_h>_0 - <U_g> - RT)
=========================================================================
	Block[ 0] -113.6775202795    [K]
	Block[ 1] -112.2711293524    [K]
	Block[ 2] -114.4657912525    [K]
	Block[ 3] -114.5207440122    [K]
	Block[ 4] -112.3709196036    [K]
	------------------------------------------------------------------------------
	[helium] Average  <U_gh>_1-<U_h>_0:     -113.4612209001 +/-       1.3576330258 [K]       (     -0.9433693408 +/-       0.0112879922 kJ/mol)

Simulation finished,  1 warnings
WARNING: INAPPROPRIATE NUMBER OF UNIT CELLS USED


Sun May  7 19:15:54 2023
Simulation finished on Sunday, May 07.
The end time was 07:15 PM.

